h 0.1 0 4 tcp 40 ------- 0 0.0 2.0 0 0
+ 0.11 0 4 tcp 40 ------- 0 0.0 2.0 0 0
- 0.11 0 4 tcp 40 ------- 0 0.0 2.0 0 0
r 0.12001 4 2 tcp 40 ------- 0 0.0 2.0 0 0
h 0.12001 2 4 ack 40 ------- 0 2.0 0.0 0 1
+ 0.13001 2 4 ack 40 ------- 0 2.0 0.0 0 1
- 0.13001 2 4 ack 40 ------- 0 2.0 0.0 0 1
r 0.140021 4 0 ack 40 ------- 0 2.0 0.0 0 1
h 0.140021 0 4 tcp 1040 ------- 0 0.0 2.0 1 2
h 0.140021 0 4 tcp 1040 ------- 0 0.0 2.0 2 3
+ 0.150021 0 4 tcp 1040 ------- 0 0.0 2.0 1 2
- 0.150021 0 4 tcp 1040 ------- 0 0.0 2.0 1 2
+ 0.150021 0 4 tcp 1040 ------- 0 0.0 2.0 2 3
- 0.150127 0 4 tcp 1040 ------- 0 0.0 2.0 2 3
r 0.16013 4 2 tcp 1040 ------- 0 0.0 2.0 1 2
h 0.16013 2 4 ack 40 ------- 0 2.0 0.0 1 4
r 0.160237 4 2 tcp 1040 ------- 0 0.0 2.0 2 3
h 0.160237 2 4 ack 40 ------- 0 2.0 0.0 2 5
+ 0.17013 2 4 ack 40 ------- 0 2.0 0.0 1 4
- 0.17013 2 4 ack 40 ------- 0 2.0 0.0 1 4
+ 0.170237 2 4 ack 40 ------- 0 2.0 0.0 2 5
- 0.170237 2 4 ack 40 ------- 0 2.0 0.0 2 5
r 0.180141 4 0 ack 40 ------- 0 2.0 0.0 1 4
h 0.180141 0 4 tcp 1040 ------- 0 0.0 2.0 3 6
h 0.180141 0 4 tcp 1040 ------- 0 0.0 2.0 4 7
r 0.180247 4 0 ack 40 ------- 0 2.0 0.0 2 5
h 0.180247 0 4 tcp 1040 ------- 0 0.0 2.0 5 8
h 0.180247 0 4 tcp 1040 ------- 0 0.0 2.0 6 9
+ 0.190141 0 4 tcp 1040 ------- 0 0.0 2.0 3 6
- 0.190141 0 4 tcp 1040 ------- 0 0.0 2.0 3 6
+ 0.190141 0 4 tcp 1040 ------- 0 0.0 2.0 4 7
+ 0.190247 0 4 tcp 1040 ------- 0 0.0 2.0 5 8
+ 0.190247 0 4 tcp 1040 ------- 0 0.0 2.0 6 9
- 0.190247 0 4 tcp 1040 ------- 0 0.0 2.0 4 7
- 0.190354 0 4 tcp 1040 ------- 0 0.0 2.0 5 8
- 0.19046 0 4 tcp 1040 ------- 0 0.0 2.0 6 9
h 0.2 1 4 tcp 40 ------- 0 1.0 3.0 0 10
r 0.20025 4 2 tcp 1040 ------- 0 0.0 2.0 3 6
h 0.20025 2 4 ack 40 ------- 0 2.0 0.0 3 11
r 0.200357 4 2 tcp 1040 ------- 0 0.0 2.0 4 7
h 0.200357 2 4 ack 40 ------- 0 2.0 0.0 4 12
r 0.200463 4 2 tcp 1040 ------- 0 0.0 2.0 5 8
h 0.200463 2 4 ack 40 ------- 0 2.0 0.0 5 13
r 0.20057 4 2 tcp 1040 ------- 0 0.0 2.0 6 9
h 0.20057 2 4 ack 40 ------- 0 2.0 0.0 6 14
+ 0.21 1 4 tcp 40 ------- 0 1.0 3.0 0 10
- 0.21 1 4 tcp 40 ------- 0 1.0 3.0 0 10
+ 0.21025 2 4 ack 40 ------- 0 2.0 0.0 3 11
- 0.21025 2 4 ack 40 ------- 0 2.0 0.0 3 11
+ 0.210357 2 4 ack 40 ------- 0 2.0 0.0 4 12
- 0.210357 2 4 ack 40 ------- 0 2.0 0.0 4 12
+ 0.210463 2 4 ack 40 ------- 0 2.0 0.0 5 13
- 0.210463 2 4 ack 40 ------- 0 2.0 0.0 5 13
+ 0.21057 2 4 ack 40 ------- 0 2.0 0.0 6 14
- 0.21057 2 4 ack 40 ------- 0 2.0 0.0 6 14
r 0.22001 4 3 tcp 40 ------- 0 1.0 3.0 0 10
h 0.22001 3 4 ack 40 ------- 0 3.0 1.0 0 15
r 0.22026 4 0 ack 40 ------- 0 2.0 0.0 3 11
h 0.22026 0 4 tcp 1040 ------- 0 0.0 2.0 7 16
h 0.22026 0 4 tcp 1040 ------- 0 0.0 2.0 8 17
r 0.220367 4 0 ack 40 ------- 0 2.0 0.0 4 12
h 0.220367 0 4 tcp 1040 ------- 0 0.0 2.0 9 18
h 0.220367 0 4 tcp 1040 ------- 0 0.0 2.0 10 19
r 0.220474 4 0 ack 40 ------- 0 2.0 0.0 5 13
h 0.220474 0 4 tcp 1040 ------- 0 0.0 2.0 11 20
h 0.220474 0 4 tcp 1040 ------- 0 0.0 2.0 12 21
r 0.22058 4 0 ack 40 ------- 0 2.0 0.0 6 14
h 0.22058 0 4 tcp 1040 ------- 0 0.0 2.0 13 22
h 0.22058 0 4 tcp 1040 ------- 0 0.0 2.0 14 23
+ 0.23001 3 4 ack 40 ------- 0 3.0 1.0 0 15
- 0.23001 3 4 ack 40 ------- 0 3.0 1.0 0 15
+ 0.23026 0 4 tcp 1040 ------- 0 0.0 2.0 7 16
- 0.23026 0 4 tcp 1040 ------- 0 0.0 2.0 7 16
+ 0.23026 0 4 tcp 1040 ------- 0 0.0 2.0 8 17
+ 0.230367 0 4 tcp 1040 ------- 0 0.0 2.0 9 18
+ 0.230367 0 4 tcp 1040 ------- 0 0.0 2.0 10 19
- 0.230367 0 4 tcp 1040 ------- 0 0.0 2.0 8 17
+ 0.230474 0 4 tcp 1040 ------- 0 0.0 2.0 11 20
+ 0.230474 0 4 tcp 1040 ------- 0 0.0 2.0 12 21
- 0.230474 0 4 tcp 1040 ------- 0 0.0 2.0 9 18
+ 0.23058 0 4 tcp 1040 ------- 0 0.0 2.0 13 22
+ 0.23058 0 4 tcp 1040 ------- 0 0.0 2.0 14 23
- 0.23058 0 4 tcp 1040 ------- 0 0.0 2.0 10 19
- 0.230687 0 4 tcp 1040 ------- 0 0.0 2.0 11 20
- 0.230793 0 4 tcp 1040 ------- 0 0.0 2.0 12 21
- 0.2309 0 4 tcp 1040 ------- 0 0.0 2.0 13 22
- 0.231007 0 4 tcp 1040 ------- 0 0.0 2.0 14 23
r 0.240021 4 1 ack 40 ------- 0 3.0 1.0 0 15
h 0.240021 1 4 tcp 1040 ------- 0 1.0 3.0 1 24
h 0.240021 1 4 tcp 1040 ------- 0 1.0 3.0 2 25
r 0.24037 4 2 tcp 1040 ------- 0 0.0 2.0 7 16
h 0.24037 2 4 ack 40 ------- 0 2.0 0.0 7 26
r 0.240476 4 2 tcp 1040 ------- 0 0.0 2.0 8 17
h 0.240476 2 4 ack 40 ------- 0 2.0 0.0 8 27
r 0.240583 4 2 tcp 1040 ------- 0 0.0 2.0 9 18
h 0.240583 2 4 ack 40 ------- 0 2.0 0.0 9 28
r 0.24069 4 2 tcp 1040 ------- 0 0.0 2.0 10 19
h 0.24069 2 4 ack 40 ------- 0 2.0 0.0 10 29
r 0.240796 4 2 tcp 1040 ------- 0 0.0 2.0 11 20
h 0.240796 2 4 ack 40 ------- 0 2.0 0.0 11 30
r 0.240903 4 2 tcp 1040 ------- 0 0.0 2.0 12 21
h 0.240903 2 4 ack 40 ------- 0 2.0 0.0 12 31
r 0.241009 4 2 tcp 1040 ------- 0 0.0 2.0 13 22
h 0.241009 2 4 ack 40 ------- 0 2.0 0.0 13 32
r 0.241116 4 2 tcp 1040 ------- 0 0.0 2.0 14 23
h 0.241116 2 4 ack 40 ------- 0 2.0 0.0 14 33
+ 0.250021 1 4 tcp 1040 ------- 0 1.0 3.0 1 24
- 0.250021 1 4 tcp 1040 ------- 0 1.0 3.0 1 24
+ 0.250021 1 4 tcp 1040 ------- 0 1.0 3.0 2 25
- 0.250127 1 4 tcp 1040 ------- 0 1.0 3.0 2 25
+ 0.25037 2 4 ack 40 ------- 0 2.0 0.0 7 26
- 0.25037 2 4 ack 40 ------- 0 2.0 0.0 7 26
+ 0.250476 2 4 ack 40 ------- 0 2.0 0.0 8 27
- 0.250476 2 4 ack 40 ------- 0 2.0 0.0 8 27
+ 0.250583 2 4 ack 40 ------- 0 2.0 0.0 9 28
- 0.250583 2 4 ack 40 ------- 0 2.0 0.0 9 28
+ 0.25069 2 4 ack 40 ------- 0 2.0 0.0 10 29
- 0.25069 2 4 ack 40 ------- 0 2.0 0.0 10 29
+ 0.250796 2 4 ack 40 ------- 0 2.0 0.0 11 30
- 0.250796 2 4 ack 40 ------- 0 2.0 0.0 11 30
+ 0.250903 2 4 ack 40 ------- 0 2.0 0.0 12 31
- 0.250903 2 4 ack 40 ------- 0 2.0 0.0 12 31
+ 0.251009 2 4 ack 40 ------- 0 2.0 0.0 13 32
- 0.251009 2 4 ack 40 ------- 0 2.0 0.0 13 32
+ 0.251116 2 4 ack 40 ------- 0 2.0 0.0 14 33
- 0.251116 2 4 ack 40 ------- 0 2.0 0.0 14 33
r 0.26013 4 3 tcp 1040 ------- 0 1.0 3.0 1 24
h 0.26013 3 4 ack 40 ------- 0 3.0 1.0 1 34
r 0.260237 4 3 tcp 1040 ------- 0 1.0 3.0 2 25
h 0.260237 3 4 ack 40 ------- 0 3.0 1.0 2 35
r 0.26038 4 0 ack 40 ------- 0 2.0 0.0 7 26
h 0.26038 0 4 tcp 1040 ------- 0 0.0 2.0 15 36
h 0.26038 0 4 tcp 1040 ------- 0 0.0 2.0 16 37
r 0.260487 4 0 ack 40 ------- 0 2.0 0.0 8 27
h 0.260487 0 4 tcp 1040 ------- 0 0.0 2.0 17 38
h 0.260487 0 4 tcp 1040 ------- 0 0.0 2.0 18 39
r 0.260593 4 0 ack 40 ------- 0 2.0 0.0 9 28
h 0.260593 0 4 tcp 1040 ------- 0 0.0 2.0 19 40
r 0.2607 4 0 ack 40 ------- 0 2.0 0.0 10 29
h 0.2607 0 4 tcp 1040 ------- 0 0.0 2.0 20 41
r 0.260807 4 0 ack 40 ------- 0 2.0 0.0 11 30
h 0.260807 0 4 tcp 1040 ------- 0 0.0 2.0 21 42
r 0.260913 4 0 ack 40 ------- 0 2.0 0.0 12 31
h 0.260913 0 4 tcp 1040 ------- 0 0.0 2.0 22 43
r 0.26102 4 0 ack 40 ------- 0 2.0 0.0 13 32
h 0.26102 0 4 tcp 1040 ------- 0 0.0 2.0 23 44
r 0.261126 4 0 ack 40 ------- 0 2.0 0.0 14 33
h 0.261126 0 4 tcp 1040 ------- 0 0.0 2.0 24 45
+ 0.27013 3 4 ack 40 ------- 0 3.0 1.0 1 34
- 0.27013 3 4 ack 40 ------- 0 3.0 1.0 1 34
+ 0.270237 3 4 ack 40 ------- 0 3.0 1.0 2 35
- 0.270237 3 4 ack 40 ------- 0 3.0 1.0 2 35
+ 0.27038 0 4 tcp 1040 ------- 0 0.0 2.0 15 36
- 0.27038 0 4 tcp 1040 ------- 0 0.0 2.0 15 36
+ 0.27038 0 4 tcp 1040 ------- 0 0.0 2.0 16 37
- 0.270487 0 4 tcp 1040 ------- 0 0.0 2.0 16 37
+ 0.270487 0 4 tcp 1040 ------- 0 0.0 2.0 17 38
+ 0.270487 0 4 tcp 1040 ------- 0 0.0 2.0 18 39
- 0.270593 0 4 tcp 1040 ------- 0 0.0 2.0 17 38
+ 0.270593 0 4 tcp 1040 ------- 0 0.0 2.0 19 40
- 0.2707 0 4 tcp 1040 ------- 0 0.0 2.0 18 39
+ 0.2707 0 4 tcp 1040 ------- 0 0.0 2.0 20 41
- 0.270807 0 4 tcp 1040 ------- 0 0.0 2.0 19 40
+ 0.270807 0 4 tcp 1040 ------- 0 0.0 2.0 21 42
- 0.270913 0 4 tcp 1040 ------- 0 0.0 2.0 20 41
+ 0.270913 0 4 tcp 1040 ------- 0 0.0 2.0 22 43
- 0.27102 0 4 tcp 1040 ------- 0 0.0 2.0 21 42
+ 0.27102 0 4 tcp 1040 ------- 0 0.0 2.0 23 44
- 0.271126 0 4 tcp 1040 ------- 0 0.0 2.0 22 43
+ 0.271126 0 4 tcp 1040 ------- 0 0.0 2.0 24 45
- 0.271233 0 4 tcp 1040 ------- 0 0.0 2.0 23 44
- 0.27134 0 4 tcp 1040 ------- 0 0.0 2.0 24 45
r 0.280141 4 1 ack 40 ------- 0 3.0 1.0 1 34
h 0.280141 1 4 tcp 1040 ------- 0 1.0 3.0 3 46
h 0.280141 1 4 tcp 1040 ------- 0 1.0 3.0 4 47
r 0.280247 4 1 ack 40 ------- 0 3.0 1.0 2 35
h 0.280247 1 4 tcp 1040 ------- 0 1.0 3.0 5 48
h 0.280247 1 4 tcp 1040 ------- 0 1.0 3.0 6 49
r 0.28049 4 2 tcp 1040 ------- 0 0.0 2.0 15 36
h 0.28049 2 4 ack 40 ------- 0 2.0 0.0 15 50
r 0.280596 4 2 tcp 1040 ------- 0 0.0 2.0 16 37
h 0.280596 2 4 ack 40 ------- 0 2.0 0.0 16 51
r 0.280703 4 2 tcp 1040 ------- 0 0.0 2.0 17 38
h 0.280703 2 4 ack 40 ------- 0 2.0 0.0 17 52
r 0.280809 4 2 tcp 1040 ------- 0 0.0 2.0 18 39
h 0.280809 2 4 ack 40 ------- 0 2.0 0.0 18 53
r 0.280916 4 2 tcp 1040 ------- 0 0.0 2.0 19 40
h 0.280916 2 4 ack 40 ------- 0 2.0 0.0 19 54
r 0.281023 4 2 tcp 1040 ------- 0 0.0 2.0 20 41
h 0.281023 2 4 ack 40 ------- 0 2.0 0.0 20 55
r 0.281129 4 2 tcp 1040 ------- 0 0.0 2.0 21 42
h 0.281129 2 4 ack 40 ------- 0 2.0 0.0 21 56
r 0.281236 4 2 tcp 1040 ------- 0 0.0 2.0 22 43
h 0.281236 2 4 ack 40 ------- 0 2.0 0.0 22 57
r 0.281342 4 2 tcp 1040 ------- 0 0.0 2.0 23 44
h 0.281342 2 4 ack 40 ------- 0 2.0 0.0 23 58
r 0.281449 4 2 tcp 1040 ------- 0 0.0 2.0 24 45
h 0.281449 2 4 ack 40 ------- 0 2.0 0.0 24 59
+ 0.290141 1 4 tcp 1040 ------- 0 1.0 3.0 3 46
- 0.290141 1 4 tcp 1040 ------- 0 1.0 3.0 3 46
+ 0.290141 1 4 tcp 1040 ------- 0 1.0 3.0 4 47
+ 0.290247 1 4 tcp 1040 ------- 0 1.0 3.0 5 48
+ 0.290247 1 4 tcp 1040 ------- 0 1.0 3.0 6 49
- 0.290247 1 4 tcp 1040 ------- 0 1.0 3.0 4 47
- 0.290354 1 4 tcp 1040 ------- 0 1.0 3.0 5 48
- 0.29046 1 4 tcp 1040 ------- 0 1.0 3.0 6 49
+ 0.29049 2 4 ack 40 ------- 0 2.0 0.0 15 50
- 0.29049 2 4 ack 40 ------- 0 2.0 0.0 15 50
+ 0.290596 2 4 ack 40 ------- 0 2.0 0.0 16 51
- 0.290596 2 4 ack 40 ------- 0 2.0 0.0 16 51
+ 0.290703 2 4 ack 40 ------- 0 2.0 0.0 17 52
- 0.290703 2 4 ack 40 ------- 0 2.0 0.0 17 52
+ 0.290809 2 4 ack 40 ------- 0 2.0 0.0 18 53
- 0.290809 2 4 ack 40 ------- 0 2.0 0.0 18 53
+ 0.290916 2 4 ack 40 ------- 0 2.0 0.0 19 54
- 0.290916 2 4 ack 40 ------- 0 2.0 0.0 19 54
+ 0.291023 2 4 ack 40 ------- 0 2.0 0.0 20 55
- 0.291023 2 4 ack 40 ------- 0 2.0 0.0 20 55
+ 0.291129 2 4 ack 40 ------- 0 2.0 0.0 21 56
- 0.291129 2 4 ack 40 ------- 0 2.0 0.0 21 56
+ 0.291236 2 4 ack 40 ------- 0 2.0 0.0 22 57
- 0.291236 2 4 ack 40 ------- 0 2.0 0.0 22 57
+ 0.291342 2 4 ack 40 ------- 0 2.0 0.0 23 58
- 0.291342 2 4 ack 40 ------- 0 2.0 0.0 23 58
+ 0.291449 2 4 ack 40 ------- 0 2.0 0.0 24 59
- 0.291449 2 4 ack 40 ------- 0 2.0 0.0 24 59
r 0.30025 4 3 tcp 1040 ------- 0 1.0 3.0 3 46
h 0.30025 3 4 ack 40 ------- 0 3.0 1.0 3 60
r 0.300357 4 3 tcp 1040 ------- 0 1.0 3.0 4 47
h 0.300357 3 4 ack 40 ------- 0 3.0 1.0 4 61
r 0.300463 4 3 tcp 1040 ------- 0 1.0 3.0 5 48
h 0.300463 3 4 ack 40 ------- 0 3.0 1.0 5 62
r 0.30057 4 3 tcp 1040 ------- 0 1.0 3.0 6 49
h 0.30057 3 4 ack 40 ------- 0 3.0 1.0 6 63
r 0.300581 4 0 ack 40 ------- 0 2.0 0.0 15 50
h 0.300581 0 4 tcp 1040 ------- 0 0.0 2.0 25 64
r 0.300607 4 0 ack 40 ------- 0 2.0 0.0 16 51
h 0.300607 0 4 tcp 1040 ------- 0 0.0 2.0 26 65
r 0.300713 4 0 ack 40 ------- 0 2.0 0.0 17 52
h 0.300713 0 4 tcp 1040 ------- 0 0.0 2.0 27 66
r 0.30082 4 0 ack 40 ------- 0 2.0 0.0 18 53
h 0.30082 0 4 tcp 1040 ------- 0 0.0 2.0 28 67
r 0.300926 4 0 ack 40 ------- 0 2.0 0.0 19 54
h 0.300926 0 4 tcp 1040 ------- 0 0.0 2.0 29 68
r 0.301033 4 0 ack 40 ------- 0 2.0 0.0 20 55
h 0.301033 0 4 tcp 1040 ------- 0 0.0 2.0 30 69
r 0.30114 4 0 ack 40 ------- 0 2.0 0.0 21 56
h 0.30114 0 4 tcp 1040 ------- 0 0.0 2.0 31 70
r 0.301246 4 0 ack 40 ------- 0 2.0 0.0 22 57
h 0.301246 0 4 tcp 1040 ------- 0 0.0 2.0 32 71
r 0.301353 4 0 ack 40 ------- 0 2.0 0.0 23 58
h 0.301353 0 4 tcp 1040 ------- 0 0.0 2.0 33 72
r 0.301459 4 0 ack 40 ------- 0 2.0 0.0 24 59
h 0.301459 0 4 tcp 1040 ------- 0 0.0 2.0 34 73
+ 0.31025 3 4 ack 40 ------- 0 3.0 1.0 3 60
- 0.31025 3 4 ack 40 ------- 0 3.0 1.0 3 60
+ 0.310357 3 4 ack 40 ------- 0 3.0 1.0 4 61
- 0.310357 3 4 ack 40 ------- 0 3.0 1.0 4 61
+ 0.310463 3 4 ack 40 ------- 0 3.0 1.0 5 62
- 0.310463 3 4 ack 40 ------- 0 3.0 1.0 5 62
+ 0.31057 3 4 ack 40 ------- 0 3.0 1.0 6 63
- 0.31057 3 4 ack 40 ------- 0 3.0 1.0 6 63
+ 0.310581 0 4 tcp 1040 ------- 0 0.0 2.0 25 64
- 0.310581 0 4 tcp 1040 ------- 0 0.0 2.0 25 64
+ 0.310607 0 4 tcp 1040 ------- 0 0.0 2.0 26 65
- 0.310688 0 4 tcp 1040 ------- 0 0.0 2.0 26 65
+ 0.310713 0 4 tcp 1040 ------- 0 0.0 2.0 27 66
- 0.310795 0 4 tcp 1040 ------- 0 0.0 2.0 27 66
+ 0.31082 0 4 tcp 1040 ------- 0 0.0 2.0 28 67
- 0.310901 0 4 tcp 1040 ------- 0 0.0 2.0 28 67
+ 0.310926 0 4 tcp 1040 ------- 0 0.0 2.0 29 68
- 0.311008 0 4 tcp 1040 ------- 0 0.0 2.0 29 68
+ 0.311033 0 4 tcp 1040 ------- 0 0.0 2.0 30 69
- 0.311114 0 4 tcp 1040 ------- 0 0.0 2.0 30 69
+ 0.31114 0 4 tcp 1040 ------- 0 0.0 2.0 31 70
- 0.311221 0 4 tcp 1040 ------- 0 0.0 2.0 31 70
+ 0.311246 0 4 tcp 1040 ------- 0 0.0 2.0 32 71
- 0.311328 0 4 tcp 1040 ------- 0 0.0 2.0 32 71
+ 0.311353 0 4 tcp 1040 ------- 0 0.0 2.0 33 72
- 0.311434 0 4 tcp 1040 ------- 0 0.0 2.0 33 72
+ 0.311459 0 4 tcp 1040 ------- 0 0.0 2.0 34 73
- 0.311541 0 4 tcp 1040 ------- 0 0.0 2.0 34 73
r 0.32026 4 1 ack 40 ------- 0 3.0 1.0 3 60
h 0.32026 1 4 tcp 1040 ------- 0 1.0 3.0 7 74
h 0.32026 1 4 tcp 1040 ------- 0 1.0 3.0 8 75
r 0.320367 4 1 ack 40 ------- 0 3.0 1.0 4 61
h 0.320367 1 4 tcp 1040 ------- 0 1.0 3.0 9 76
h 0.320367 1 4 tcp 1040 ------- 0 1.0 3.0 10 77
r 0.320474 4 1 ack 40 ------- 0 3.0 1.0 5 62
h 0.320474 1 4 tcp 1040 ------- 0 1.0 3.0 11 78
h 0.320474 1 4 tcp 1040 ------- 0 1.0 3.0 12 79
r 0.32058 4 1 ack 40 ------- 0 3.0 1.0 6 63
h 0.32058 1 4 tcp 1040 ------- 0 1.0 3.0 13 80
h 0.32058 1 4 tcp 1040 ------- 0 1.0 3.0 14 81
r 0.320691 4 2 tcp 1040 ------- 0 0.0 2.0 25 64
h 0.320691 2 4 ack 40 ------- 0 2.0 0.0 25 82
r 0.320797 4 2 tcp 1040 ------- 0 0.0 2.0 26 65
h 0.320797 2 4 ack 40 ------- 0 2.0 0.0 26 83
r 0.320904 4 2 tcp 1040 ------- 0 0.0 2.0 27 66
h 0.320904 2 4 ack 40 ------- 0 2.0 0.0 27 84
r 0.321011 4 2 tcp 1040 ------- 0 0.0 2.0 28 67
h 0.321011 2 4 ack 40 ------- 0 2.0 0.0 28 85
r 0.321117 4 2 tcp 1040 ------- 0 0.0 2.0 29 68
h 0.321117 2 4 ack 40 ------- 0 2.0 0.0 29 86
r 0.321224 4 2 tcp 1040 ------- 0 0.0 2.0 30 69
h 0.321224 2 4 ack 40 ------- 0 2.0 0.0 30 87
r 0.32133 4 2 tcp 1040 ------- 0 0.0 2.0 31 70
h 0.32133 2 4 ack 40 ------- 0 2.0 0.0 31 88
r 0.321437 4 2 tcp 1040 ------- 0 0.0 2.0 32 71
h 0.321437 2 4 ack 40 ------- 0 2.0 0.0 32 89
r 0.321544 4 2 tcp 1040 ------- 0 0.0 2.0 33 72
h 0.321544 2 4 ack 40 ------- 0 2.0 0.0 33 90
r 0.32165 4 2 tcp 1040 ------- 0 0.0 2.0 34 73
h 0.32165 2 4 ack 40 ------- 0 2.0 0.0 34 91
+ 0.33026 1 4 tcp 1040 ------- 0 1.0 3.0 7 74
- 0.33026 1 4 tcp 1040 ------- 0 1.0 3.0 7 74
+ 0.33026 1 4 tcp 1040 ------- 0 1.0 3.0 8 75
+ 0.330367 1 4 tcp 1040 ------- 0 1.0 3.0 9 76
+ 0.330367 1 4 tcp 1040 ------- 0 1.0 3.0 10 77
- 0.330367 1 4 tcp 1040 ------- 0 1.0 3.0 8 75
+ 0.330474 1 4 tcp 1040 ------- 0 1.0 3.0 11 78
+ 0.330474 1 4 tcp 1040 ------- 0 1.0 3.0 12 79
- 0.330474 1 4 tcp 1040 ------- 0 1.0 3.0 9 76
+ 0.33058 1 4 tcp 1040 ------- 0 1.0 3.0 13 80
+ 0.33058 1 4 tcp 1040 ------- 0 1.0 3.0 14 81
- 0.33058 1 4 tcp 1040 ------- 0 1.0 3.0 10 77
- 0.330687 1 4 tcp 1040 ------- 0 1.0 3.0 11 78
+ 0.330691 2 4 ack 40 ------- 0 2.0 0.0 25 82
- 0.330691 2 4 ack 40 ------- 0 2.0 0.0 25 82
+ 0.330797 2 4 ack 40 ------- 0 2.0 0.0 26 83
- 0.330817 1 4 tcp 1040 ------- 0 1.0 3.0 12 79
+ 0.330904 2 4 ack 40 ------- 0 2.0 0.0 27 84
- 0.330961 1 4 tcp 1040 ------- 0 1.0 3.0 13 80
+ 0.331011 2 4 ack 40 ------- 0 2.0 0.0 28 85
- 0.331077 1 4 tcp 1040 ------- 0 1.0 3.0 14 81
+ 0.331117 2 4 ack 40 ------- 0 2.0 0.0 29 86
- 0.331195 2 4 ack 40 ------- 0 2.0 0.0 26 83
- 0.331203 2 4 ack 40 ------- 0 2.0 0.0 27 84
- 0.33121 2 4 ack 40 ------- 0 2.0 0.0 28 85
- 0.331218 2 4 ack 40 ------- 0 2.0 0.0 29 86
+ 0.331224 2 4 ack 40 ------- 0 2.0 0.0 30 87
- 0.331226 2 4 ack 40 ------- 0 2.0 0.0 30 87
+ 0.33133 2 4 ack 40 ------- 0 2.0 0.0 31 88
- 0.33133 2 4 ack 40 ------- 0 2.0 0.0 31 88
+ 0.331437 2 4 ack 40 ------- 0 2.0 0.0 32 89
- 0.331437 2 4 ack 40 ------- 0 2.0 0.0 32 89
+ 0.331544 2 4 ack 40 ------- 0 2.0 0.0 33 90
- 0.331544 2 4 ack 40 ------- 0 2.0 0.0 33 90
+ 0.33165 2 4 ack 40 ------- 0 2.0 0.0 34 91
- 0.33165 2 4 ack 40 ------- 0 2.0 0.0 34 91
r 0.34037 4 3 tcp 1040 ------- 0 1.0 3.0 7 74
h 0.34037 3 4 ack 40 ------- 0 3.0 1.0 7 92
r 0.340476 4 3 tcp 1040 ------- 0 1.0 3.0 8 75
h 0.340476 3 4 ack 40 ------- 0 3.0 1.0 8 93
r 0.340583 4 3 tcp 1040 ------- 0 1.0 3.0 9 76
h 0.340583 3 4 ack 40 ------- 0 3.0 1.0 9 94
r 0.34069 4 3 tcp 1040 ------- 0 1.0 3.0 10 77
h 0.34069 3 4 ack 40 ------- 0 3.0 1.0 10 95
r 0.34082 4 3 tcp 1040 ------- 0 1.0 3.0 11 78
h 0.34082 3 4 ack 40 ------- 0 3.0 1.0 11 96
r 0.340964 4 3 tcp 1040 ------- 0 1.0 3.0 12 79
h 0.340964 3 4 ack 40 ------- 0 3.0 1.0 12 97
r 0.34108 4 3 tcp 1040 ------- 0 1.0 3.0 13 80
h 0.34108 3 4 ack 40 ------- 0 3.0 1.0 13 98
r 0.341186 4 3 tcp 1040 ------- 0 1.0 3.0 14 81
h 0.341186 3 4 ack 40 ------- 0 3.0 1.0 14 99
r 0.341198 4 0 ack 40 ------- 0 2.0 0.0 25 82
h 0.341198 0 4 tcp 1040 ------- 0 0.0 2.0 35 100
r 0.341206 4 0 ack 40 ------- 0 2.0 0.0 26 83
h 0.341206 0 4 tcp 1040 ------- 0 0.0 2.0 36 101
r 0.341213 4 0 ack 40 ------- 0 2.0 0.0 27 84
h 0.341213 0 4 tcp 1040 ------- 0 0.0 2.0 37 102
r 0.341221 4 0 ack 40 ------- 0 2.0 0.0 28 85
h 0.341221 0 4 tcp 1040 ------- 0 0.0 2.0 38 103
r 0.341228 4 0 ack 40 ------- 0 2.0 0.0 29 86
h 0.341228 0 4 tcp 1040 ------- 0 0.0 2.0 39 104
r 0.341236 4 0 ack 40 ------- 0 2.0 0.0 30 87
h 0.341236 0 4 tcp 1040 ------- 0 0.0 2.0 40 105
r 0.341341 4 0 ack 40 ------- 0 2.0 0.0 31 88
h 0.341341 0 4 tcp 1040 ------- 0 0.0 2.0 41 106
r 0.341447 4 0 ack 40 ------- 0 2.0 0.0 32 89
h 0.341447 0 4 tcp 1040 ------- 0 0.0 2.0 42 107
r 0.341554 4 0 ack 40 ------- 0 2.0 0.0 33 90
h 0.341554 0 4 tcp 1040 ------- 0 0.0 2.0 43 108
r 0.341661 4 0 ack 40 ------- 0 2.0 0.0 34 91
h 0.341661 0 4 tcp 1040 ------- 0 0.0 2.0 44 109
+ 0.35037 3 4 ack 40 ------- 0 3.0 1.0 7 92
- 0.35037 3 4 ack 40 ------- 0 3.0 1.0 7 92
+ 0.350476 3 4 ack 40 ------- 0 3.0 1.0 8 93
- 0.350476 3 4 ack 40 ------- 0 3.0 1.0 8 93
+ 0.350583 3 4 ack 40 ------- 0 3.0 1.0 9 94
- 0.350583 3 4 ack 40 ------- 0 3.0 1.0 9 94
+ 0.35069 3 4 ack 40 ------- 0 3.0 1.0 10 95
- 0.35069 3 4 ack 40 ------- 0 3.0 1.0 10 95
+ 0.35082 3 4 ack 40 ------- 0 3.0 1.0 11 96
- 0.35082 3 4 ack 40 ------- 0 3.0 1.0 11 96
+ 0.350964 3 4 ack 40 ------- 0 3.0 1.0 12 97
- 0.350964 3 4 ack 40 ------- 0 3.0 1.0 12 97
+ 0.35108 3 4 ack 40 ------- 0 3.0 1.0 13 98
- 0.35108 3 4 ack 40 ------- 0 3.0 1.0 13 98
+ 0.351186 3 4 ack 40 ------- 0 3.0 1.0 14 99
- 0.351186 3 4 ack 40 ------- 0 3.0 1.0 14 99
+ 0.351198 0 4 tcp 1040 ------- 0 0.0 2.0 35 100
- 0.351198 0 4 tcp 1040 ------- 0 0.0 2.0 35 100
+ 0.351206 0 4 tcp 1040 ------- 0 0.0 2.0 36 101
+ 0.351213 0 4 tcp 1040 ------- 0 0.0 2.0 37 102
+ 0.351221 0 4 tcp 1040 ------- 0 0.0 2.0 38 103
+ 0.351228 0 4 tcp 1040 ------- 0 0.0 2.0 39 104
+ 0.351236 0 4 tcp 1040 ------- 0 0.0 2.0 40 105
- 0.351305 0 4 tcp 1040 ------- 0 0.0 2.0 36 101
+ 0.351341 0 4 tcp 1040 ------- 0 0.0 2.0 41 106
- 0.351411 0 4 tcp 1040 ------- 0 0.0 2.0 37 102
+ 0.351447 0 4 tcp 1040 ------- 0 0.0 2.0 42 107
- 0.351518 0 4 tcp 1040 ------- 0 0.0 2.0 38 103
+ 0.351554 0 4 tcp 1040 ------- 0 0.0 2.0 43 108
- 0.351624 0 4 tcp 1040 ------- 0 0.0 2.0 39 104
+ 0.351661 0 4 tcp 1040 ------- 0 0.0 2.0 44 109
- 0.351731 0 4 tcp 1040 ------- 0 0.0 2.0 40 105
- 0.351838 0 4 tcp 1040 ------- 0 0.0 2.0 41 106
- 0.351944 0 4 tcp 1040 ------- 0 0.0 2.0 42 107
- 0.352051 0 4 tcp 1040 ------- 0 0.0 2.0 43 108
- 0.352157 0 4 tcp 1040 ------- 0 0.0 2.0 44 109
r 0.36038 4 1 ack 40 ------- 0 3.0 1.0 7 92
h 0.36038 1 4 tcp 1040 ------- 0 1.0 3.0 15 110
h 0.36038 1 4 tcp 1040 ------- 0 1.0 3.0 16 111
r 0.360487 4 1 ack 40 ------- 0 3.0 1.0 8 93
h 0.360487 1 4 tcp 1040 ------- 0 1.0 3.0 17 112
h 0.360487 1 4 tcp 1040 ------- 0 1.0 3.0 18 113
r 0.360593 4 1 ack 40 ------- 0 3.0 1.0 9 94
h 0.360593 1 4 tcp 1040 ------- 0 1.0 3.0 19 114
h 0.360593 1 4 tcp 1040 ------- 0 1.0 3.0 20 115
r 0.3607 4 1 ack 40 ------- 0 3.0 1.0 10 95
h 0.3607 1 4 tcp 1040 ------- 0 1.0 3.0 21 116
h 0.3607 1 4 tcp 1040 ------- 0 1.0 3.0 22 117
r 0.360831 4 1 ack 40 ------- 0 3.0 1.0 11 96
h 0.360831 1 4 tcp 1040 ------- 0 1.0 3.0 23 118
h 0.360831 1 4 tcp 1040 ------- 0 1.0 3.0 24 119
r 0.360974 4 1 ack 40 ------- 0 3.0 1.0 12 97
h 0.360974 1 4 tcp 1040 ------- 0 1.0 3.0 25 120
h 0.360974 1 4 tcp 1040 ------- 0 1.0 3.0 26 121
r 0.36109 4 1 ack 40 ------- 0 3.0 1.0 13 98
h 0.36109 1 4 tcp 1040 ------- 0 1.0 3.0 27 122
h 0.36109 1 4 tcp 1040 ------- 0 1.0 3.0 28 123
r 0.361197 4 1 ack 40 ------- 0 3.0 1.0 14 99
h 0.361197 1 4 tcp 1040 ------- 0 1.0 3.0 29 124
h 0.361197 1 4 tcp 1040 ------- 0 1.0 3.0 30 125
r 0.361307 4 2 tcp 1040 ------- 0 0.0 2.0 35 100
h 0.361307 2 4 ack 40 ------- 0 2.0 0.0 35 126
r 0.361414 4 2 tcp 1040 ------- 0 0.0 2.0 36 101
h 0.361414 2 4 ack 40 ------- 0 2.0 0.0 36 127
r 0.361521 4 2 tcp 1040 ------- 0 0.0 2.0 37 102
h 0.361521 2 4 ack 40 ------- 0 2.0 0.0 37 128
r 0.361627 4 2 tcp 1040 ------- 0 0.0 2.0 38 103
h 0.361627 2 4 ack 40 ------- 0 2.0 0.0 38 129
r 0.361734 4 2 tcp 1040 ------- 0 0.0 2.0 39 104
h 0.361734 2 4 ack 40 ------- 0 2.0 0.0 39 130
r 0.36184 4 2 tcp 1040 ------- 0 0.0 2.0 40 105
h 0.36184 2 4 ack 40 ------- 0 2.0 0.0 40 131
r 0.361947 4 2 tcp 1040 ------- 0 0.0 2.0 41 106
h 0.361947 2 4 ack 40 ------- 0 2.0 0.0 41 132
r 0.362054 4 2 tcp 1040 ------- 0 0.0 2.0 42 107
h 0.362054 2 4 ack 40 ------- 0 2.0 0.0 42 133
r 0.36216 4 2 tcp 1040 ------- 0 0.0 2.0 43 108
h 0.36216 2 4 ack 40 ------- 0 2.0 0.0 43 134
r 0.362267 4 2 tcp 1040 ------- 0 0.0 2.0 44 109
h 0.362267 2 4 ack 40 ------- 0 2.0 0.0 44 135
+ 0.37038 1 4 tcp 1040 ------- 0 1.0 3.0 15 110
- 0.37038 1 4 tcp 1040 ------- 0 1.0 3.0 15 110
+ 0.37038 1 4 tcp 1040 ------- 0 1.0 3.0 16 111
+ 0.370487 1 4 tcp 1040 ------- 0 1.0 3.0 17 112
+ 0.370487 1 4 tcp 1040 ------- 0 1.0 3.0 18 113
- 0.370487 1 4 tcp 1040 ------- 0 1.0 3.0 16 111
+ 0.370593 1 4 tcp 1040 ------- 0 1.0 3.0 19 114
+ 0.370593 1 4 tcp 1040 ------- 0 1.0 3.0 20 115
- 0.370593 1 4 tcp 1040 ------- 0 1.0 3.0 17 112
+ 0.3707 1 4 tcp 1040 ------- 0 1.0 3.0 21 116
+ 0.3707 1 4 tcp 1040 ------- 0 1.0 3.0 22 117
- 0.3707 1 4 tcp 1040 ------- 0 1.0 3.0 18 113
- 0.370807 1 4 tcp 1040 ------- 0 1.0 3.0 19 114
+ 0.370831 1 4 tcp 1040 ------- 0 1.0 3.0 23 118
+ 0.370831 1 4 tcp 1040 ------- 0 1.0 3.0 24 119
- 0.370913 1 4 tcp 1040 ------- 0 1.0 3.0 20 115
+ 0.370974 1 4 tcp 1040 ------- 0 1.0 3.0 25 120
+ 0.370974 1 4 tcp 1040 ------- 0 1.0 3.0 26 121
- 0.37102 1 4 tcp 1040 ------- 0 1.0 3.0 21 116
+ 0.37109 1 4 tcp 1040 ------- 0 1.0 3.0 27 122
+ 0.37109 1 4 tcp 1040 ------- 0 1.0 3.0 28 123
- 0.371126 1 4 tcp 1040 ------- 0 1.0 3.0 22 117
+ 0.371197 1 4 tcp 1040 ------- 0 1.0 3.0 29 124
+ 0.371197 1 4 tcp 1040 ------- 0 1.0 3.0 30 125
- 0.371233 1 4 tcp 1040 ------- 0 1.0 3.0 23 118
+ 0.371307 2 4 ack 40 ------- 0 2.0 0.0 35 126
- 0.371307 2 4 ack 40 ------- 0 2.0 0.0 35 126
- 0.37134 1 4 tcp 1040 ------- 0 1.0 3.0 24 119
+ 0.371414 2 4 ack 40 ------- 0 2.0 0.0 36 127
- 0.37147 1 4 tcp 1040 ------- 0 1.0 3.0 25 120
- 0.371483 2 4 ack 40 ------- 0 2.0 0.0 36 127
+ 0.371521 2 4 ack 40 ------- 0 2.0 0.0 37 128
- 0.371521 2 4 ack 40 ------- 0 2.0 0.0 37 128
+ 0.371627 2 4 ack 40 ------- 0 2.0 0.0 38 129
- 0.371627 2 4 ack 40 ------- 0 2.0 0.0 38 129
- 0.371639 1 4 tcp 1040 ------- 0 1.0 3.0 26 121
+ 0.371734 2 4 ack 40 ------- 0 2.0 0.0 39 130
- 0.371734 2 4 ack 40 ------- 0 2.0 0.0 39 130
- 0.371783 1 4 tcp 1040 ------- 0 1.0 3.0 27 122
+ 0.37184 2 4 ack 40 ------- 0 2.0 0.0 40 131
- 0.37184 2 4 ack 40 ------- 0 2.0 0.0 40 131
+ 0.371947 2 4 ack 40 ------- 0 2.0 0.0 41 132
- 0.371947 2 4 ack 40 ------- 0 2.0 0.0 41 132
- 0.371978 1 4 tcp 1040 ------- 0 1.0 3.0 28 123
+ 0.372054 2 4 ack 40 ------- 0 2.0 0.0 42 133
- 0.372054 2 4 ack 40 ------- 0 2.0 0.0 42 133
+ 0.37216 2 4 ack 40 ------- 0 2.0 0.0 43 134
- 0.37216 2 4 ack 40 ------- 0 2.0 0.0 43 134
- 0.372198 1 4 tcp 1040 ------- 0 1.0 3.0 29 124
+ 0.372267 2 4 ack 40 ------- 0 2.0 0.0 44 135
- 0.372267 2 4 ack 40 ------- 0 2.0 0.0 44 135
- 0.372385 1 4 tcp 1040 ------- 0 1.0 3.0 30 125
r 0.38049 4 3 tcp 1040 ------- 0 1.0 3.0 15 110
h 0.38049 3 4 ack 40 ------- 0 3.0 1.0 15 136
r 0.380596 4 3 tcp 1040 ------- 0 1.0 3.0 16 111
h 0.380596 3 4 ack 40 ------- 0 3.0 1.0 16 137
r 0.380703 4 3 tcp 1040 ------- 0 1.0 3.0 17 112
h 0.380703 3 4 ack 40 ------- 0 3.0 1.0 17 138
r 0.380809 4 3 tcp 1040 ------- 0 1.0 3.0 18 113
h 0.380809 3 4 ack 40 ------- 0 3.0 1.0 18 139
r 0.380916 4 3 tcp 1040 ------- 0 1.0 3.0 19 114
h 0.380916 3 4 ack 40 ------- 0 3.0 1.0 19 140
r 0.381023 4 3 tcp 1040 ------- 0 1.0 3.0 20 115
h 0.381023 3 4 ack 40 ------- 0 3.0 1.0 20 141
r 0.381129 4 3 tcp 1040 ------- 0 1.0 3.0 21 116
h 0.381129 3 4 ack 40 ------- 0 3.0 1.0 21 142
r 0.381236 4 3 tcp 1040 ------- 0 1.0 3.0 22 117
h 0.381236 3 4 ack 40 ------- 0 3.0 1.0 22 143
r 0.381342 4 3 tcp 1040 ------- 0 1.0 3.0 23 118
h 0.381342 3 4 ack 40 ------- 0 3.0 1.0 23 144
r 0.381473 4 3 tcp 1040 ------- 0 1.0 3.0 24 119
h 0.381473 3 4 ack 40 ------- 0 3.0 1.0 24 145
r 0.381486 4 0 ack 40 ------- 0 2.0 0.0 35 126
h 0.381486 0 4 tcp 1040 ------- 0 0.0 2.0 45 146
r 0.381642 4 3 tcp 1040 ------- 0 1.0 3.0 25 120
h 0.381642 3 4 ack 40 ------- 0 3.0 1.0 25 147
r 0.381671 4 0 ack 40 ------- 0 2.0 0.0 38 129
h 0.381671 0 4 tcp 1040 ------- 0 0.0 2.0 46 148
h 0.381671 0 4 tcp 1040 ------- 0 0.0 2.0 47 149
h 0.381671 0 4 tcp 1040 ------- 0 0.0 2.0 48 150
r 0.381785 4 3 tcp 1040 ------- 0 1.0 3.0 26 121
h 0.381785 3 4 ack 40 ------- 0 3.0 1.0 26 151
r 0.381981 4 3 tcp 1040 ------- 0 1.0 3.0 27 122
h 0.381981 3 4 ack 40 ------- 0 3.0 1.0 27 152
r 0.382201 4 3 tcp 1040 ------- 0 1.0 3.0 28 123
h 0.382201 3 4 ack 40 ------- 0 3.0 1.0 28 153
r 0.382388 4 3 tcp 1040 ------- 0 1.0 3.0 29 124
h 0.382388 3 4 ack 40 ------- 0 3.0 1.0 29 154
r 0.382495 4 3 tcp 1040 ------- 0 1.0 3.0 30 125
h 0.382495 3 4 ack 40 ------- 0 3.0 1.0 30 155
+ 0.39049 3 4 ack 40 ------- 0 3.0 1.0 15 136
- 0.39049 3 4 ack 40 ------- 0 3.0 1.0 15 136
+ 0.390596 3 4 ack 40 ------- 0 3.0 1.0 16 137
- 0.390596 3 4 ack 40 ------- 0 3.0 1.0 16 137
+ 0.390703 3 4 ack 40 ------- 0 3.0 1.0 17 138
- 0.390703 3 4 ack 40 ------- 0 3.0 1.0 17 138
+ 0.390809 3 4 ack 40 ------- 0 3.0 1.0 18 139
- 0.390809 3 4 ack 40 ------- 0 3.0 1.0 18 139
+ 0.390916 3 4 ack 40 ------- 0 3.0 1.0 19 140
- 0.390916 3 4 ack 40 ------- 0 3.0 1.0 19 140
+ 0.391023 3 4 ack 40 ------- 0 3.0 1.0 20 141
- 0.391023 3 4 ack 40 ------- 0 3.0 1.0 20 141
+ 0.391129 3 4 ack 40 ------- 0 3.0 1.0 21 142
- 0.391129 3 4 ack 40 ------- 0 3.0 1.0 21 142
+ 0.391236 3 4 ack 40 ------- 0 3.0 1.0 22 143
- 0.391236 3 4 ack 40 ------- 0 3.0 1.0 22 143
+ 0.391342 3 4 ack 40 ------- 0 3.0 1.0 23 144
- 0.391342 3 4 ack 40 ------- 0 3.0 1.0 23 144
+ 0.391473 3 4 ack 40 ------- 0 3.0 1.0 24 145
- 0.391473 3 4 ack 40 ------- 0 3.0 1.0 24 145
+ 0.391486 0 4 tcp 1040 ------- 0 0.0 2.0 45 146
- 0.391486 0 4 tcp 1040 ------- 0 0.0 2.0 45 146
+ 0.391642 3 4 ack 40 ------- 0 3.0 1.0 25 147
- 0.391642 3 4 ack 40 ------- 0 3.0 1.0 25 147
+ 0.391671 0 4 tcp 1040 ------- 0 0.0 2.0 46 148
- 0.391671 0 4 tcp 1040 ------- 0 0.0 2.0 46 148
+ 0.391671 0 4 tcp 1040 ------- 0 0.0 2.0 47 149
+ 0.391671 0 4 tcp 1040 ------- 0 0.0 2.0 48 150
- 0.391778 0 4 tcp 1040 ------- 0 0.0 2.0 47 149
+ 0.391785 3 4 ack 40 ------- 0 3.0 1.0 26 151
- 0.391785 3 4 ack 40 ------- 0 3.0 1.0 26 151
- 0.391884 0 4 tcp 1040 ------- 0 0.0 2.0 48 150
+ 0.391981 3 4 ack 40 ------- 0 3.0 1.0 27 152
- 0.391981 3 4 ack 40 ------- 0 3.0 1.0 27 152
+ 0.392201 3 4 ack 40 ------- 0 3.0 1.0 28 153
- 0.392201 3 4 ack 40 ------- 0 3.0 1.0 28 153
+ 0.392388 3 4 ack 40 ------- 0 3.0 1.0 29 154
- 0.392388 3 4 ack 40 ------- 0 3.0 1.0 29 154
+ 0.392495 3 4 ack 40 ------- 0 3.0 1.0 30 155
- 0.392495 3 4 ack 40 ------- 0 3.0 1.0 30 155
r 0.4005 4 1 ack 40 ------- 0 3.0 1.0 15 136
h 0.4005 1 4 tcp 1040 ------- 0 1.0 3.0 31 156
h 0.4005 1 4 tcp 1040 ------- 0 1.0 3.0 32 157
r 0.400607 4 1 ack 40 ------- 0 3.0 1.0 16 137
h 0.400607 1 4 tcp 1040 ------- 0 1.0 3.0 33 158
h 0.400607 1 4 tcp 1040 ------- 0 1.0 3.0 34 159
r 0.400713 4 1 ack 40 ------- 0 3.0 1.0 17 138
h 0.400713 1 4 tcp 1040 ------- 0 1.0 3.0 35 160
h 0.400713 1 4 tcp 1040 ------- 0 1.0 3.0 36 161
r 0.40082 4 1 ack 40 ------- 0 3.0 1.0 18 139
h 0.40082 1 4 tcp 1040 ------- 0 1.0 3.0 37 162
h 0.40082 1 4 tcp 1040 ------- 0 1.0 3.0 38 163
r 0.400926 4 1 ack 40 ------- 0 3.0 1.0 19 140
h 0.400926 1 4 tcp 1040 ------- 0 1.0 3.0 39 164
r 0.401033 4 1 ack 40 ------- 0 3.0 1.0 20 141
h 0.401033 1 4 tcp 1040 ------- 0 1.0 3.0 40 165
r 0.40114 4 1 ack 40 ------- 0 3.0 1.0 21 142
h 0.40114 1 4 tcp 1040 ------- 0 1.0 3.0 41 166
r 0.401246 4 1 ack 40 ------- 0 3.0 1.0 22 143
h 0.401246 1 4 tcp 1040 ------- 0 1.0 3.0 42 167
r 0.401353 4 1 ack 40 ------- 0 3.0 1.0 23 144
h 0.401353 1 4 tcp 1040 ------- 0 1.0 3.0 43 168
r 0.401483 4 1 ack 40 ------- 0 3.0 1.0 24 145
h 0.401483 1 4 tcp 1040 ------- 0 1.0 3.0 44 169
r 0.401596 4 2 tcp 1040 ------- 0 0.0 2.0 45 146
h 0.401596 2 4 ack 40 ------- 0 2.0 0.0 45 170
r 0.401652 4 1 ack 40 ------- 0 3.0 1.0 25 147
h 0.401652 1 4 tcp 1040 ------- 0 1.0 3.0 45 171
r 0.401781 4 2 tcp 1040 ------- 0 0.0 2.0 46 148
h 0.401781 2 4 ack 40 ------- 0 2.0 0.0 46 172
r 0.401887 4 2 tcp 1040 ------- 0 0.0 2.0 47 149
h 0.401887 2 4 ack 40 ------- 0 2.0 0.0 47 173
r 0.4019 4 1 ack 40 ------- 0 3.0 1.0 26 151
h 0.4019 1 4 tcp 1040 ------- 0 1.0 3.0 46 174
r 0.402011 4 2 tcp 1040 ------- 0 0.0 2.0 48 150
h 0.402011 2 4 ack 40 ------- 0 2.0 0.0 48 175
r 0.402023 4 1 ack 40 ------- 0 3.0 1.0 27 152
h 0.402023 1 4 tcp 1040 ------- 0 1.0 3.0 47 176
r 0.402211 4 1 ack 40 ------- 0 3.0 1.0 28 153
h 0.402211 1 4 tcp 1040 ------- 0 1.0 3.0 48 177
r 0.402399 4 1 ack 40 ------- 0 3.0 1.0 29 154
h 0.402399 1 4 tcp 1040 ------- 0 1.0 3.0 49 178
r 0.402505 4 1 ack 40 ------- 0 3.0 1.0 30 155
h 0.402505 1 4 tcp 1040 ------- 0 1.0 3.0 50 179
+ 0.4105 1 4 tcp 1040 ------- 0 1.0 3.0 31 156