V -t * -v 1.0a5 -a 0
A -t * -n 1 -p 0 -o 0x7fffffff -c 30 -a 1
A -t * -h 1 -m 1073741823 -s 0
n -t * -a 0 -s 0 -S UP -v circle -c black -i black
n -t * -a 1 -s 1 -S UP -v circle -c black -i black
n -t * -a 2 -s 2 -S UP -v circle -c black -i black
n -t * -a 3 -s 3 -S UP -v circle -c black -i black
X -t * -n 4 -r 10MB -D 10ms -o left
L -t * -s 4 -d 0 -o up
L -t * -s 4 -d 1 -o down
L -t * -s 4 -d 2 -o up
L -t * -s 4 -d 3 -o down
h -t 0.1 -s 0 -d 4 -p tcp -e 40 -c 0 -i 0 -a 0 -x {0.0 2.0 0 ------- null}
+ -t 0.11 -s 0 -d 4 -p tcp -e 40 -c 0 -i 0 -a 0 -x {0.0 2.0 0 ------- null}
- -t 0.11 -s 0 -d 4 -p tcp -e 40 -c 0 -i 0 -a 0 -x {0.0 2.0 0 ------- null}
h -t 0.11 -s 0 -d 4 -p tcp -e 40 -c 0 -i 0 -a 0 -x {0.0 2.0 -1 ------- null}
r -t 0.1200104 -s 4 -d 2 -p tcp -e 40 -c 0 -i 0 -a 0 -x {0.0 2.0 0 ------- null}
h -t 0.1200104 -s 2 -d 4 -p ack -e 40 -c 0 -i 1 -a 0 -x {2.0 0.0 0 ------- null}
+ -t 0.1300104 -s 2 -d 4 -p ack -e 40 -c 0 -i 1 -a 0 -x {2.0 0.0 0 ------- null}
- -t 0.1300104 -s 2 -d 4 -p ack -e 40 -c 0 -i 1 -a 0 -x {2.0 0.0 0 ------- null}
h -t 0.1300104 -s 2 -d 4 -p ack -e 40 -c 0 -i 1 -a 0 -x {2.0 0.0 -1 ------- null}
r -t 0.1400208 -s 4 -d 0 -p ack -e 40 -c 0 -i 1 -a 0 -x {2.0 0.0 0 ------- null}
h -t 0.1400208 -s 0 -d 4 -p tcp -e 1040 -c 0 -i 2 -a 0 -x {0.0 2.0 1 ------- null}
h -t 0.1400208 -s 0 -d 4 -p tcp -e 1040 -c 0 -i 3 -a 0 -x {0.0 2.0 2 ------- null}
+ -t 0.1500208 -s 0 -d 4 -p tcp -e 1040 -c 0 -i 2 -a 0 -x {0.0 2.0 1 ------- null}
- -t 0.1500208 -s 0 -d 4 -p tcp -e 1040 -c 0 -i 2 -a 0 -x {0.0 2.0 1 ------- null}
h -t 0.1500208 -s 0 -d 4 -p tcp -e 1040 -c 0 -i 2 -a 0 -x {0.0 2.0 -1 ------- null}
+ -t 0.1500208 -s 0 -d 4 -p tcp -e 1040 -c 0 -i 3 -a 0 -x {0.0 2.0 2 ------- null}
- -t 0.1501274 -s 0 -d 4 -p tcp -e 1040 -c 0 -i 3 -a 0 -x {0.0 2.0 2 ------- null}
h -t 0.1501274 -s 0 -d 4 -p tcp -e 1040 -c 0 -i 3 -a 0 -x {0.0 2.0 -1 ------- null}
r -t 0.1601302 -s 4 -d 2 -p tcp -e 1040 -c 0 -i 2 -a 0 -x {0.0 2.0 1 ------- null}
h -t 0.1601302 -s 2 -d 4 -p ack -e 40 -c 0 -i 4 -a 0 -x {2.0 0.0 1 ------- null}
r -t 0.1602368 -s 4 -d 2 -p tcp -e 1040 -c 0 -i 3 -a 0 -x {0.0 2.0 2 ------- null}
h -t 0.1602368 -s 2 -d 4 -p ack -e 40 -c 0 -i 5 -a 0 -x {2.0 0.0 2 ------- null}
+ -t 0.1701302 -s 2 -d 4 -p ack -e 40 -c 0 -i 4 -a 0 -x {2.0 0.0 1 ------- null}
- -t 0.1701302 -s 2 -d 4 -p ack -e 40 -c 0 -i 4 -a 0 -x {2.0 0.0 1 ------- null}
h -t 0.1701302 -s 2 -d 4 -p ack -e 40 -c 0 -i 4 -a 0 -x {2.0 0.0 -1 ------- null}
+ -t 0.1702368 -s 2 -d 4 -p ack -e 40 -c 0 -i 5 -a 0 -x {2.0 0.0 2 ------- null}
- -t 0.1702368 -s 2 -d 4 -p ack -e 40 -c 0 -i 5 -a 0 -x {2.0 0.0 2 ------- null}
h -t 0.1702368 -s 2 -d 4 -p ack -e 40 -c 0 -i 5 -a 0 -x {2.0 0.0 -1 ------- null}
r -t 0.1801406 -s 4 -d 0 -p ack -e 40 -c 0 -i 4 -a 0 -x {2.0 0.0 1 ------- null}
h -t 0.1801406 -s 0 -d 4 -p tcp -e 1040 -c 0 -i 6 -a 0 -x {0.0 2.0 3 ------- null}
h -t 0.1801406 -s 0 -d 4 -p tcp -e 1040 -c 0 -i 7 -a 0 -x {0.0 2.0 4 ------- null}
r -t 0.1802472 -s 4 -d 0 -p ack -e 40 -c 0 -i 5 -a 0 -x {2.0 0.0 2 ------- null}
h -t 0.1802472 -s 0 -d 4 -p tcp -e 1040 -c 0 -i 8 -a 0 -x {0.0 2.0 5 ------- null}
h -t 0.1802472 -s 0 -d 4 -p tcp -e 1040 -c 0 -i 9 -a 0 -x {0.0 2.0 6 ------- null}
+ -t 0.1901406 -s 0 -d 4 -p tcp -e 1040 -c 0 -i 6 -a 0 -x {0.0 2.0 3 ------- null}
- -t 0.1901406 -s 0 -d 4 -p tcp -e 1040 -c 0 -i 6 -a 0 -x {0.0 2.0 3 ------- null}
h -t 0.1901406 -s 0 -d 4 -p tcp -e 1040 -c 0 -i 6 -a 0 -x {0.0 2.0 -1 ------- null}
+ -t 0.1901406 -s 0 -d 4 -p tcp -e 1040 -c 0 -i 7 -a 0 -x {0.0 2.0 4 ------- null}
+ -t 0.1902472 -s 0 -d 4 -p tcp -e 1040 -c 0 -i 8 -a 0 -x {0.0 2.0 5 ------- null}
+ -t 0.1902472 -s 0 -d 4 -p tcp -e 1040 -c 0 -i 9 -a 0 -x {0.0 2.0 6 ------- null}
- -t 0.1902472 -s 0 -d 4 -p tcp -e 1040 -c 0 -i 7 -a 0 -x {0.0 2.0 4 ------- null}
h -t 0.1902472 -s 0 -d 4 -p tcp -e 1040 -c 0 -i 7 -a 0 -x {0.0 2.0 -1 ------- null}
- -t 0.1903538 -s 0 -d 4 -p tcp -e 1040 -c 0 -i 8 -a 0 -x {0.0 2.0 5 ------- null}
h -t 0.1903538 -s 0 -d 4 -p tcp -e 1040 -c 0 -i 8 -a 0 -x {0.0 2.0 -1 ------- null}
- -t 0.1904604 -s 0 -d 4 -p tcp -e 1040 -c 0 -i 9 -a 0 -x {0.0 2.0 6 ------- null}
h -t 0.1904604 -s 0 -d 4 -p tcp -e 1040 -c 0 -i 9 -a 0 -x {0.0 2.0 -1 ------- null}
h -t 0.2 -s 1 -d 4 -p tcp -e 40 -c 0 -i 10 -a 0 -x {1.0 3.0 0 ------- null}
r -t 0.20025 -s 4 -d 2 -p tcp -e 1040 -c 0 -i 6 -a 0 -x {0.0 2.0 3 ------- null}
h -t 0.20025 -s 2 -d 4 -p ack -e 40 -c 0 -i 11 -a 0 -x {2.0 0.0 3 ------- null}
r -t 0.2003566 -s 4 -d 2 -p tcp -e 1040 -c 0 -i 7 -a 0 -x {0.0 2.0 4 ------- null}
h -t 0.2003566 -s 2 -d 4 -p ack -e 40 -c 0 -i 12 -a 0 -x {2.0 0.0 4 ------- null}
r -t 0.2004632 -s 4 -d 2 -p tcp -e 1040 -c 0 -i 8 -a 0 -x {0.0 2.0 5 ------- null}
h -t 0.2004632 -s 2 -d 4 -p ack -e 40 -c 0 -i 13 -a 0 -x {2.0 0.0 5 ------- null}
r -t 0.2005698 -s 4 -d 2 -p tcp -e 1040 -c 0 -i 9 -a 0 -x {0.0 2.0 6 ------- null}
h -t 0.2005698 -s 2 -d 4 -p ack -e 40 -c 0 -i 14 -a 0 -x {2.0 0.0 6 ------- null}
+ -t 0.21 -s 1 -d 4 -p tcp -e 40 -c 0 -i 10 -a 0 -x {1.0 3.0 0 ------- null}
- -t 0.21 -s 1 -d 4 -p tcp -e 40 -c 0 -i 10 -a 0 -x {1.0 3.0 0 ------- null}
h -t 0.21 -s 1 -d 4 -p tcp -e 40 -c 0 -i 10 -a 0 -x {1.0 3.0 -1 ------- null}
+ -t 0.21025 -s 2 -d 4 -p ack -e 40 -c 0 -i 11 -a 0 -x {2.0 0.0 3 ------- null}
- -t 0.21025 -s 2 -d 4 -p ack -e 40 -c 0 -i 11 -a 0 -x {2.0 0.0 3 ------- null}
h -t 0.21025 -s 2 -d 4 -p ack -e 40 -c 0 -i 11 -a 0 -x {2.0 0.0 -1 ------- null}
+ -t 0.2103566 -s 2 -d 4 -p ack -e 40 -c 0 -i 12 -a 0 -x {2.0 0.0 4 ------- null}
- -t 0.2103566 -s 2 -d 4 -p ack -e 40 -c 0 -i 12 -a 0 -x {2.0 0.0 4 ------- null}
h -t 0.2103566 -s 2 -d 4 -p ack -e 40 -c 0 -i 12 -a 0 -x {2.0 0.0 -1 ------- null}
+ -t 0.2104632 -s 2 -d 4 -p ack -e 40 -c 0 -i 13 -a 0 -x {2.0 0.0 5 ------- null}
- -t 0.2104632 -s 2 -d 4 -p ack -e 40 -c 0 -i 13 -a 0 -x {2.0 0.0 5 ------- null}
h -t 0.2104632 -s 2 -d 4 -p ack -e 40 -c 0 -i 13 -a 0 -x {2.0 0.0 -1 ------- null}
+ -t 0.2105698 -s 2 -d 4 -p ack -e 40 -c 0 -i 14 -a 0 -x {2.0 0.0 6 ------- null}
- -t 0.2105698 -s 2 -d 4 -p ack -e 40 -c 0 -i 14 -a 0 -x {2.0 0.0 6 ------- null}
h -t 0.2105698 -s 2 -d 4 -p ack -e 40 -c 0 -i 14 -a 0 -x {2.0 0.0 -1 ------- null}
r -t 0.2200104 -s 4 -d 3 -p tcp -e 40 -c 0 -i 10 -a 0 -x {1.0 3.0 0 ------- null}
h -t 0.2200104 -s 3 -d 4 -p ack -e 40 -c 0 -i 15 -a 0 -x {3.0 1.0 0 ------- null}
r -t 0.2202604 -s 4 -d 0 -p ack -e 40 -c 0 -i 11 -a 0 -x {2.0 0.0 3 ------- null}
h -t 0.2202604 -s 0 -d 4 -p tcp -e 1040 -c 0 -i 16 -a 0 -x {0.0 2.0 7 ------- null}
h -t 0.2202604 -s 0 -d 4 -p tcp -e 1040 -c 0 -i 17 -a 0 -x {0.0 2.0 8 ------- null}
r -t 0.220367 -s 4 -d 0 -p ack -e 40 -c 0 -i 12 -a 0 -x {2.0 0.0 4 ------- null}
h -t 0.220367 -s 0 -d 4 -p tcp -e 1040 -c 0 -i 18 -a 0 -x {0.0 2.0 9 ------- null}
h -t 0.220367 -s 0 -d 4 -p tcp -e 1040 -c 0 -i 19 -a 0 -x {0.0 2.0 10 ------- null}
r -t 0.2204736 -s 4 -d 0 -p ack -e 40 -c 0 -i 13 -a 0 -x {2.0 0.0 5 ------- null}
h -t 0.2204736 -s 0 -d 4 -p tcp -e 1040 -c 0 -i 20 -a 0 -x {0.0 2.0 11 ------- null}
h -t 0.2204736 -s 0 -d 4 -p tcp -e 1040 -c 0 -i 21 -a 0 -x {0.0 2.0 12 ------- null}
r -t 0.2205802 -s 4 -d 0 -p ack -e 40 -c 0 -i 14 -a 0 -x {2.0 0.0 6 ------- null}
h -t 0.2205802 -s 0 -d 4 -p tcp -e 1040 -c 0 -i 22 -a 0 -x {0.0 2.0 13 ------- null}
h -t 0.2205802 -s 0 -d 4 -p tcp -e 1040 -c 0 -i 23 -a 0 -x {0.0 2.0 14 ------- null}
+ -t 0.2300104 -s 3 -d 4 -p ack -e 40 -c 0 -i 15 -a 0 -x {3.0 1.0 0 ------- null}
- -t 0.2300104 -s 3 -d 4 -p ack -e 40 -c 0 -i 15 -a 0 -x {3.0 1.0 0 ------- null}
h -t 0.2300104 -s 3 -d 4 -p ack -e 40 -c 0 -i 15 -a 0 -x {3.0 1.0 -1 ------- null}
+ -t 0.2302604 -s 0 -d 4 -p tcp -e 1040 -c 0 -i 16 -a 0 -x {0.0 2.0 7 ------- null}
- -t 0.2302604 -s 0 -d 4 -p tcp -e 1040 -c 0 -i 16 -a 0 -x {0.0 2.0 7 ------- null}
h -t 0.2302604 -s 0 -d 4 -p tcp -e 1040 -c 0 -i 16 -a 0 -x {0.0 2.0 -1 ------- null}
+ -t 0.2302604 -s 0 -d 4 -p tcp -e 1040 -c 0 -i 17 -a 0 -x {0.0 2.0 8 ------- null}
+ -t 0.230367 -s 0 -d 4 -p tcp -e 1040 -c 0 -i 18 -a 0 -x {0.0 2.0 9 ------- null}
+ -t 0.230367 -s 0 -d 4 -p tcp -e 1040 -c 0 -i 19 -a 0 -x {0.0 2.0 10 ------- null}
- -t 0.230367 -s 0 -d 4 -p tcp -e 1040 -c 0 -i 17 -a 0 -x {0.0 2.0 8 ------- null}
h -t 0.230367 -s 0 -d 4 -p tcp -e 1040 -c 0 -i 17 -a 0 -x {0.0 2.0 -1 ------- null}
+ -t 0.2304736 -s 0 -d 4 -p tcp -e 1040 -c 0 -i 20 -a 0 -x {0.0 2.0 11 ------- null}
+ -t 0.2304736 -s 0 -d 4 -p tcp -e 1040 -c 0 -i 21 -a 0 -x {0.0 2.0 12 ------- null}
- -t 0.2304736 -s 0 -d 4 -p tcp -e 1040 -c 0 -i 18 -a 0 -x {0.0 2.0 9 ------- null}
h -t 0.2304736 -s 0 -d 4 -p tcp -e 1040 -c 0 -i 18 -a 0 -x {0.0 2.0 -1 ------- null}
+ -t 0.2305802 -s 0 -d 4 -p tcp -e 1040 -c 0 -i 22 -a 0 -x {0.0 2.0 13 ------- null}
+ -t 0.2305802 -s 0 -d 4 -p tcp -e 1040 -c 0 -i 23 -a 0 -x {0.0 2.0 14 ------- null}
- -t 0.2305802 -s 0 -d 4 -p tcp -e 1040 -c 0 -i 19 -a 0 -x {0.0 2.0 10 ------- null}
h -t 0.2305802 -s 0 -d 4 -p tcp -e 1040 -c 0 -i 19 -a 0 -x {0.0 2.0 -1 ------- null}
- -t 0.2306868 -s 0 -d 4 -p tcp -e 1040 -c 0 -i 20 -a 0 -x {0.0 2.0 11 ------- null}
h -t 0.2306868 -s 0 -d 4 -p tcp -e 1040 -c 0 -i 20 -a 0 -x {0.0 2.0 -1 ------- null}
- -t 0.2307934 -s 0 -d 4 -p tcp -e 1040 -c 0 -i 21 -a 0 -x {0.0 2.0 12 ------- null}
h -t 0.2307934 -s 0 -d 4 -p tcp -e 1040 -c 0 -i 21 -a 0 -x {0.0 2.0 -1 ------- null}
- -t 0.2309 -s 0 -d 4 -p tcp -e 1040 -c 0 -i 22 -a 0 -x {0.0 2.0 13 ------- null}
h -t 0.2309 -s 0 -d 4 -p tcp -e 1040 -c 0 -i 22 -a 0 -x {0.0 2.0 -1 ------- null}
- -t 0.2310066 -s 0 -d 4 -p tcp -e 1040 -c 0 -i 23 -a 0 -x {0.0 2.0 14 ------- null}
h -t 0.2310066 -s 0 -d 4 -p tcp -e 1040 -c 0 -i 23 -a 0 -x {0.0 2.0 -1 ------- null}
r -t 0.2400208 -s 4 -d 1 -p ack -e 40 -c 0 -i 15 -a 0 -x {3.0 1.0 0 ------- null}
h -t 0.2400208 -s 1 -d 4 -p tcp -e 1040 -c 0 -i 24 -a 0 -x {1.0 3.0 1 ------- null}
h -t 0.2400208 -s 1 -d 4 -p tcp -e 1040 -c 0 -i 25 -a 0 -x {1.0 3.0 2 ------- null}
r -t 0.2403698 -s 4 -d 2 -p tcp -e 1040 -c 0 -i 16 -a 0 -x {0.0 2.0 7 ------- null}
h -t 0.2403698 -s 2 -d 4 -p ack -e 40 -c 0 -i 26 -a 0 -x {2.0 0.0 7 ------- null}
r -t 0.2404764 -s 4 -d 2 -p tcp -e 1040 -c 0 -i 17 -a 0 -x {0.0 2.0 8 ------- null}
h -t 0.2404764 -s 2 -d 4 -p ack -e 40 -c 0 -i 27 -a 0 -x {2.0 0.0 8 ------- null}
r -t 0.240583 -s 4 -d 2 -p tcp -e 1040 -c 0 -i 18 -a 0 -x {0.0 2.0 9 ------- null}
h -t 0.240583 -s 2 -d 4 -p ack -e 40 -c 0 -i 28 -a 0 -x {2.0 0.0 9 ------- null}
r -t 0.2406896 -s 4 -d 2 -p tcp -e 1040 -c 0 -i 19 -a 0 -x {0.0 2.0 10 ------- null}
h -t 0.2406896 -s 2 -d 4 -p ack -e 40 -c 0 -i 29 -a 0 -x {2.0 0.0 10 ------- null}
r -t 0.2407962 -s 4 -d 2 -p tcp -e 1040 -c 0 -i 20 -a 0 -x {0.0 2.0 11 ------- null}
h -t 0.2407962 -s 2 -d 4 -p ack -e 40 -c 0 -i 30 -a 0 -x {2.0 0.0 11 ------- null}
r -t 0.2409028 -s 4 -d 2 -p tcp -e 1040 -c 0 -i 21 -a 0 -x {0.0 2.0 12 ------- null}
h -t 0.2409028 -s 2 -d 4 -p ack -e 40 -c 0 -i 31 -a 0 -x {2.0 0.0 12 ------- null}
r -t 0.2410094 -s 4 -d 2 -p tcp -e 1040 -c 0 -i 22 -a 0 -x {0.0 2.0 13 ------- null}
h -t 0.2410094 -s 2 -d 4 -p ack -e 40 -c 0 -i 32 -a 0 -x {2.0 0.0 13 ------- null}
r -t 0.241116 -s 4 -d 2 -p tcp -e 1040 -c 0 -i 23 -a 0 -x {0.0 2.0 14 ------- null}
h -t 0.241116 -s 2 -d 4 -p ack -e 40 -c 0 -i 33 -a 0 -x {2.0 0.0 14 ------- null}
+ -t 0.2500208 -s 1 -d 4 -p tcp -e 1040 -c 0 -i 24 -a 0 -x {1.0 3.0 1 ------- null}
- -t 0.2500208 -s 1 -d 4 -p tcp -e 1040 -c 0 -i 24 -a 0 -x {1.0 3.0 1 ------- null}
h -t 0.2500208 -s 1 -d 4 -p tcp -e 1040 -c 0 -i 24 -a 0 -x {1.0 3.0 -1 ------- null}
+ -t 0.2500208 -s 1 -d 4 -p tcp -e 1040 -c 0 -i 25 -a 0 -x {1.0 3.0 2 ------- null}
- -t 0.2501274 -s 1 -d 4 -p tcp -e 1040 -c 0 -i 25 -a 0 -x {1.0 3.0 2 ------- null}
h -t 0.2501274 -s 1 -d 4 -p tcp -e 1040 -c 0 -i 25 -a 0 -x {1.0 3.0 -1 ------- null}
+ -t 0.2503698 -s 2 -d 4 -p ack -e 40 -c 0 -i 26 -a 0 -x {2.0 0.0 7 ------- null}
- -t 0.2503698 -s 2 -d 4 -p ack -e 40 -c 0 -i 26 -a 0 -x {2.0 0.0 7 ------- null}
h -t 0.2503698 -s 2 -d 4 -p ack -e 40 -c 0 -i 26 -a 0 -x {2.0 0.0 -1 ------- null}
+ -t 0.2504764 -s 2 -d 4 -p ack -e 40 -c 0 -i 27 -a 0 -x {2.0 0.0 8 ------- null}
- -t 0.2504764 -s 2 -d 4 -p ack -e 40 -c 0 -i 27 -a 0 -x {2.0 0.0 8 ------- null}
h -t 0.2504764 -s 2 -d 4 -p ack -e 40 -c 0 -i 27 -a 0 -x {2.0 0.0 -1 ------- null}
+ -t 0.250583 -s 2 -d 4 -p ack -e 40 -c 0 -i 28 -a 0 -x {2.0 0.0 9 ------- null}
- -t 0.250583 -s 2 -d 4 -p ack -e 40 -c 0 -i 28 -a 0 -x {2.0 0.0 9 ------- null}
h -t 0.250583 -s 2 -d 4 -p ack -e 40 -c 0 -i 28 -a 0 -x {2.0 0.0 -1 ------- null}
+ -t 0.2506896 -s 2 -d 4 -p ack -e 40 -c 0 -i 29 -a 0 -x {2.0 0.0 10 ------- null}
- -t 0.2506896 -s 2 -d 4 -p ack -e 40 -c 0 -i 29 -a 0 -x {2.0 0.0 10 ------- null}
h -t 0.2506896 -s 2 -d 4 -p ack -e 40 -c 0 -i 29 -a 0 -x {2.0 0.0 -1 ------- null}
+ -t 0.2507962 -s 2 -d 4 -p ack -e 40 -c 0 -i 30 -a 0 -x {2.0 0.0 11 ------- null}
- -t 0.2507962 -s 2 -d 4 -p ack -e 40 -c 0 -i 30 -a 0 -x {2.0 0.0 11 ------- null}
h -t 0.2507962 -s 2 -d 4 -p ack -e 40 -c 0 -i 30 -a 0 -x {2.0 0.0 -1 ------- null}
+ -t 0.2509028 -s 2 -d 4 -p ack -e 40 -c 0 -i 31 -a 0 -x {2.0 0.0 12 ------- null}
- -t 0.2509028 -s 2 -d 4 -p ack -e 40 -c 0 -i 31 -a 0 -x {2.0 0.0 12 ------- null}
h -t 0.2509028 -s 2 -d 4 -p ack -e 40 -c 0 -i 31 -a 0 -x {2.0 0.0 -1 ------- null}
+ -t 0.2510094 -s 2 -d 4 -p ack -e 40 -c 0 -i 32 -a 0 -x {2.0 0.0 13 ------- null}
- -t 0.2510094 -s 2 -d 4 -p ack -e 40 -c 0 -i 32 -a 0 -x {2.0 0.0 13 ------- null}
h -t 0.2510094 -s 2 -d 4 -p ack -e 40 -c 0 -i 32 -a 0 -x {2.0 0.0 -1 ------- null}
+ -t 0.251116 -s 2 -d 4 -p ack -e 40 -c 0 -i 33 -a 0 -x {2.0 0.0 14 ------- null}
- -t 0.251116 -s 2 -d 4 -p ack -e 40 -c 0 -i 33 -a 0 -x {2.0 0.0 14 ------- null}
h -t 0.251116 -s 2 -d 4 -p ack -e 40 -c 0 -i 33 -a 0 -x {2.0 0.0 -1 ------- null}
r -t 0.2601302 -s 4 -d 3 -p tcp -e 1040 -c 0 -i 24 -a 0 -x {1.0 3.0 1 ------- null}
h -t 0.2601302 -s 3 -d 4 -p ack -e 40 -c 0 -i 34 -a 0 -x {3.0 1.0 1 ------- null}
r -t 0.2602368 -s 4 -d 3 -p tcp -e 1040 -c 0 -i 25 -a 0 -x {1.0 3.0 2 ------- null}
h -t 0.2602368 -s 3 -d 4 -p ack -e 40 -c 0 -i 35 -a 0 -x {3.0 1.0 2 ------- null}
r -t 0.2603802 -s 4 -d 0 -p ack -e 40 -c 0 -i 26 -a 0 -x {2.0 0.0 7 ------- null}
h -t 0.2603802 -s 0 -d 4 -p tcp -e 1040 -c 0 -i 36 -a 0 -x {0.0 2.0 15 ------- null}
h -t 0.2603802 -s 0 -d 4 -p tcp -e 1040 -c 0 -i 37 -a 0 -x {0.0 2.0 16 ------- null}
r -t 0.2604868 -s 4 -d 0 -p ack -e 40 -c 0 -i 27 -a 0 -x {2.0 0.0 8 ------- null}
h -t 0.2604868 -s 0 -d 4 -p tcp -e 1040 -c 0 -i 38 -a 0 -x {0.0 2.0 17 ------- null}
h -t 0.2604868 -s 0 -d 4 -p tcp -e 1040 -c 0 -i 39 -a 0 -x {0.0 2.0 18 ------- null}
r -t 0.2605934 -s 4 -d 0 -p ack -e 40 -c 0 -i 28 -a 0 -x {2.0 0.0 9 ------- null}
h -t 0.2605934 -s 0 -d 4 -p tcp -e 1040 -c 0 -i 40 -a 0 -x {0.0 2.0 19 ------- null}
r -t 0.2607 -s 4 -d 0 -p ack -e 40 -c 0 -i 29 -a 0 -x {2.0 0.0 10 ------- null}
h -t 0.2607 -s 0 -d 4 -p tcp -e 1040 -c 0 -i 41 -a 0 -x {0.0 2.0 20 ------- null}
r -t 0.2608066 -s 4 -d 0 -p ack -e 40 -c 0 -i 30 -a 0 -x {2.0 0.0 11 ------- null}
h -t 0.2608066 -s 0 -d 4 -p tcp -e 1040 -c 0 -i 42 -a 0 -x {0.0 2.0 21 ------- null}
r -t 0.2609132 -s 4 -d 0 -p ack -e 40 -c 0 -i 31 -a 0 -x {2.0 0.0 12 ------- null}
h -t 0.2609132 -s 0 -d 4 -p tcp -e 1040 -c 0 -i 43 -a 0 -x {0.0 2.0 22 ------- null}
r -t 0.2610198 -s 4 -d 0 -p ack -e 40 -c 0 -i 32 -a 0 -x {2.0 0.0 13 ------- null}
h -t 0.2610198 -s 0 -d 4 -p tcp -e 1040 -c 0 -i 44 -a 0 -x {0.0 2.0 23 ------- null}
r -t 0.2611264 -s 4 -d 0 -p ack -e 40 -c 0 -i 33 -a 0 -x {2.0 0.0 14 ------- null}
h -t 0.2611264 -s 0 -d 4 -p tcp -e 1040 -c 0 -i 45 -a 0 -x {0.0 2.0 24 ------- null}
+ -t 0.2701302 -s 3 -d 4 -p ack -e 40 -c 0 -i 34 -a 0 -x {3.0 1.0 1 ------- null}
- -t 0.2701302 -s 3 -d 4 -p ack -e 40 -c 0 -i 34 -a 0 -x {3.0 1.0 1 ------- null}
h -t 0.2701302 -s 3 -d 4 -p ack -e 40 -c 0 -i 34 -a 0 -x {3.0 1.0 -1 ------- null}
+ -t 0.2702368 -s 3 -d 4 -p ack -e 40 -c 0 -i 35 -a 0 -x {3.0 1.0 2 ------- null}
- -t 0.2702368 -s 3 -d 4 -p ack -e 40 -c 0 -i 35 -a 0 -x {3.0 1.0 2 ------- null}
h -t 0.2702368 -s 3 -d 4 -p ack -e 40 -c 0 -i 35 -a 0 -x {3.0 1.0 -1 ------- null}
+ -t 0.2703802 -s 0 -d 4 -p tcp -e 1040 -c 0 -i 36 -a 0 -x {0.0 2.0 15 ------- null}
- -t 0.2703802 -s 0 -d 4 -p tcp -e 1040 -c 0 -i 36 -a 0 -x {0.0 2.0 15 ------- null}
h -t 0.2703802 -s 0 -d 4 -p tcp -e 1040 -c 0 -i 36 -a 0 -x {0.0 2.0 -1 ------- null}
+ -t 0.2703802 -s 0 -d 4 -p tcp -e 1040 -c 0 -i 37 -a 0 -x {0.0 2.0 16 ------- null}
- -t 0.2704868 -s 0 -d 4 -p tcp -e 1040 -c 0 -i 37 -a 0 -x {0.0 2.0 16 ------- null}
h -t 0.2704868 -s 0 -d 4 -p tcp -e 1040 -c 0 -i 37 -a 0 -x {0.0 2.0 -1 ------- null}
+ -t 0.2704868 -s 0 -d 4 -p tcp -e 1040 -c 0 -i 38 -a 0 -x {0.0 2.0 17 ------- null}
+ -t 0.2704868 -s 0 -d 4 -p tcp -e 1040 -c 0 -i 39 -a 0 -x {0.0 2.0 18 ------- null}
- -t 0.2705934 -s 0 -d 4 -p tcp -e 1040 -c 0 -i 38 -a 0 -x {0.0 2.0 17 ------- null}
h -t 0.2705934 -s 0 -d 4 -p tcp -e 1040 -c 0 -i 38 -a 0 -x {0.0 2.0 -1 ------- null}
+ -t 0.2705934 -s 0 -d 4 -p tcp -e 1040 -c 0 -i 40 -a 0 -x {0.0 2.0 19 ------- null}
- -t 0.2707 -s 0 -d 4 -p tcp -e 1040 -c 0 -i 39 -a 0 -x {0.0 2.0 18 ------- null}
h -t 0.2707 -s 0 -d 4 -p tcp -e 1040 -c 0 -i 39 -a 0 -x {0.0 2.0 -1 ------- null}
+ -t 0.2707 -s 0 -d 4 -p tcp -e 1040 -c 0 -i 41 -a 0 -x {0.0 2.0 20 ------- null}
- -t 0.2708066 -s 0 -d 4 -p tcp -e 1040 -c 0 -i 40 -a 0 -x {0.0 2.0 19 ------- null}
h -t 0.2708066 -s 0 -d 4 -p tcp -e 1040 -c 0 -i 40 -a 0 -x {0.0 2.0 -1 ------- null}
+ -t 0.2708066 -s 0 -d 4 -p tcp -e 1040 -c 0 -i 42 -a 0 -x {0.0 2.0 21 ------- null}
- -t 0.2709132 -s 0 -d 4 -p tcp -e 1040 -c 0 -i 41 -a 0 -x {0.0 2.0 20 ------- null}
h -t 0.2709132 -s 0 -d 4 -p tcp -e 1040 -c 0 -i 41 -a 0 -x {0.0 2.0 -1 ------- null}
+ -t 0.2709132 -s 0 -d 4 -p tcp -e 1040 -c 0 -i 43 -a 0 -x {0.0 2.0 22 ------- null}
- -t 0.2710198 -s 0 -d 4 -p tcp -e 1040 -c 0 -i 42 -a 0 -x {0.0 2.0 21 ------- null}
h -t 0.2710198 -s 0 -d 4 -p tcp -e 1040 -c 0 -i 42 -a 0 -x {0.0 2.0 -1 ------- null}
+ -t 0.2710198 -s 0 -d 4 -p tcp -e 1040 -c 0 -i 44 -a 0 -x {0.0 2.0 23 ------- null}
- -t 0.2711264 -s 0 -d 4 -p tcp -e 1040 -c 0 -i 43 -a 0 -x {0.0 2.0 22 ------- null}
h -t 0.2711264 -s 0 -d 4 -p tcp -e 1040 -c 0 -i 43 -a 0 -x {0.0 2.0 -1 ------- null}
+ -t 0.2711264 -s 0 -d 4 -p tcp -e 1040 -c 0 -i 45 -a 0 -x {0.0 2.0 24 ------- null}
- -t 0.271233 -s 0 -d 4 -p tcp -e 1040 -c 0 -i 44 -a 0 -x {0.0 2.0 23 ------- null}
h -t 0.271233 -s 0 -d 4 -p tcp -e 1040 -c 0 -i 44 -a 0 -x {0.0 2.0 -1 ------- null}
- -t 0.2713396 -s 0 -d 4 -p tcp -e 1040 -c 0 -i 45 -a 0 -x {0.0 2.0 24 ------- null}
h -t 0.2713396 -s 0 -d 4 -p tcp -e 1040 -c 0 -i 45 -a 0 -x {0.0 2.0 -1 ------- null}
r -t 0.2801406 -s 4 -d 1 -p ack -e 40 -c 0 -i 34 -a 0 -x {3.0 1.0 1 ------- null}
h -t 0.2801406 -s 1 -d 4 -p tcp -e 1040 -c 0 -i 46 -a 0 -x {1.0 3.0 3 ------- null}
h -t 0.2801406 -s 1 -d 4 -p tcp -e 1040 -c 0 -i 47 -a 0 -x {1.0 3.0 4 ------- null}
r -t 0.2802472 -s 4 -d 1 -p ack -e 40 -c 0 -i 35 -a 0 -x {3.0 1.0 2 ------- null}
h -t 0.2802472 -s 1 -d 4 -p tcp -e 1040 -c 0 -i 48 -a 0 -x {1.0 3.0 5 ------- null}
h -t 0.2802472 -s 1 -d 4 -p tcp -e 1040 -c 0 -i 49 -a 0 -x {1.0 3.0 6 ------- null}
r -t 0.2804896 -s 4 -d 2 -p tcp -e 1040 -c 0 -i 36 -a 0 -x {0.0 2.0 15 ------- null}
h -t 0.2804896 -s 2 -d 4 -p ack -e 40 -c 0 -i 50 -a 0 -x {2.0 0.0 15 ------- null}
r -t 0.2805962 -s 4 -d 2 -p tcp -e 1040 -c 0 -i 37 -a 0 -x {0.0 2.0 16 ------- null}
h -t 0.2805962 -s 2 -d 4 -p ack -e 40 -c 0 -i 51 -a 0 -x {2.0 0.0 16 ------- null}
r -t 0.2807028 -s 4 -d 2 -p tcp -e 1040 -c 0 -i 38 -a 0 -x {0.0 2.0 17 ------- null}
h -t 0.2807028 -s 2 -d 4 -p ack -e 40 -c 0 -i 52 -a 0 -x {2.0 0.0 17 ------- null}
r -t 0.2808094 -s 4 -d 2 -p tcp -e 1040 -c 0 -i 39 -a 0 -x {0.0 2.0 18 ------- null}
h -t 0.2808094 -s 2 -d 4 -p ack -e 40 -c 0 -i 53 -a 0 -x {2.0 0.0 18 ------- null}
r -t 0.280916 -s 4 -d 2 -p tcp -e 1040 -c 0 -i 40 -a 0 -x {0.0 2.0 19 ------- null}
h -t 0.280916 -s 2 -d 4 -p ack -e 40 -c 0 -i 54 -a 0 -x {2.0 0.0 19 ------- null}
r -t 0.2810226 -s 4 -d 2 -p tcp -e 1040 -c 0 -i 41 -a 0 -x {0.0 2.0 20 ------- null}
h -t 0.2810226 -s 2 -d 4 -p ack -e 40 -c 0 -i 55 -a 0 -x {2.0 0.0 20 ------- null}
r -t 0.2811292 -s 4 -d 2 -p tcp -e 1040 -c 0 -i 42 -a 0 -x {0.0 2.0 21 ------- null}
h -t 0.2811292 -s 2 -d 4 -p ack -e 40 -c 0 -i 56 -a 0 -x {2.0 0.0 21 ------- null}
r -t 0.2812358 -s 4 -d 2 -p tcp -e 1040 -c 0 -i 43 -a 0 -x {0.0 2.0 22 ------- null}
h -t 0.2812358 -s 2 -d 4 -p ack -e 40 -c 0 -i 57 -a 0 -x {2.0 0.0 22 ------- null}
r -t 0.2813424 -s 4 -d 2 -p tcp -e 1040 -c 0 -i 44 -a 0 -x {0.0 2.0 23 ------- null}
h -t 0.2813424 -s 2 -d 4 -p ack -e 40 -c 0 -i 58 -a 0 -x {2.0 0.0 23 ------- null}
r -t 0.281449 -s 4 -d 2 -p tcp -e 1040 -c 0 -i 45 -a 0 -x {0.0 2.0 24 ------- null}
h -t 0.281449 -s 2 -d 4 -p ack -e 40 -c 0 -i 59 -a 0 -x {2.0 0.0 24 ------- null}
+ -t 0.2901406 -s 1 -d 4 -p tcp -e 1040 -c 0 -i 46 -a 0 -x {1.0 3.0 3 ------- null}
- -t 0.2901406 -s 1 -d 4 -p tcp -e 1040 -c 0 -i 46 -a 0 -x {1.0 3.0 3 ------- null}
h -t 0.2901406 -s 1 -d 4 -p tcp -e 1040 -c 0 -i 46 -a 0 -x {1.0 3.0 -1 ------- null}
+ -t 0.2901406 -s 1 -d 4 -p tcp -e 1040 -c 0 -i 47 -a 0 -x {1.0 3.0 4 ------- null}
+ -t 0.2902472 -s 1 -d 4 -p tcp -e 1040 -c 0 -i 48 -a 0 -x {1.0 3.0 5 ------- null}
+ -t 0.2902472 -s 1 -d 4 -p tcp -e 1040 -c 0 -i 49 -a 0 -x {1.0 3.0 6 ------- null}
- -t 0.2902472 -s 1 -d 4 -p tcp -e 1040 -c 0 -i 47 -a 0 -x {1.0 3.0 4 ------- null}
h -t 0.2902472 -s 1 -d 4 -p tcp -e 1040 -c 0 -i 47 -a 0 -x {1.0 3.0 -1 ------- null}
- -t 0.2903538 -s 1 -d 4 -p tcp -e 1040 -c 0 -i 48 -a 0 -x {1.0 3.0 5 ------- null}
h -t 0.2903538 -s 1 -d 4 -p tcp -e 1040 -c 0 -i 48 -a 0 -x {1.0 3.0 -1 ------- null}
- -t 0.2904604 -s 1 -d 4 -p tcp -e 1040 -c 0 -i 49 -a 0 -x {1.0 3.0 6 ------- null}
h -t 0.2904604 -s 1 -d 4 -p tcp -e 1040 -c 0 -i 49 -a 0 -x {1.0 3.0 -1 ------- null}
+ -t 0.2904896 -s 2 -d 4 -p ack -e 40 -c 0 -i 50 -a 0 -x {2.0 0.0 15 ------- null}
- -t 0.2904896 -s 2 -d 4 -p ack -e 40 -c 0 -i 50 -a 0 -x {2.0 0.0 15 ------- null}
h -t 0.2904896 -s 2 -d 4 -p ack -e 40 -c 0 -i 50 -a 0 -x {2.0 0.0 -1 ------- null}
+ -t 0.2905962 -s 2 -d 4 -p ack -e 40 -c 0 -i 51 -a 0 -x {2.0 0.0 16 ------- null}
- -t 0.2905962 -s 2 -d 4 -p ack -e 40 -c 0 -i 51 -a 0 -x {2.0 0.0 16 ------- null}
h -t 0.2905962 -s 2 -d 4 -p ack -e 40 -c 0 -i 51 -a 0 -x {2.0 0.0 -1 ------- null}
+ -t 0.2907028 -s 2 -d 4 -p ack -e 40 -c 0 -i 52 -a 0 -x {2.0 0.0 17 ------- null}
- -t 0.2907028 -s 2 -d 4 -p ack -e 40 -c 0 -i 52 -a 0 -x {2.0 0.0 17 ------- null}
h -t 0.2907028 -s 2 -d 4 -p ack -e 40 -c 0 -i 52 -a 0 -x {2.0 0.0 -1 ------- null}
+ -t 0.2908094 -s 2 -d 4 -p ack -e 40 -c 0 -i 53 -a 0 -x {2.0 0.0 18 ------- null}
- -t 0.2908094 -s 2 -d 4 -p ack -e 40 -c 0 -i 53 -a 0 -x {2.0 0.0 18 ------- null}
h -t 0.2908094 -s 2 -d 4 -p ack -e 40 -c 0 -i 53 -a 0 -x {2.0 0.0 -1 ------- null}
+ -t 0.290916 -s 2 -d 4 -p ack -e 40 -c 0 -i 54 -a 0 -x {2.0 0.0 19 ------- null}
- -t 0.290916 -s 2 -d 4 -p ack -e 40 -c 0 -i 54 -a 0 -x {2.0 0.0 19 ------- null}
h -t 0.290916 -s 2 -d 4 -p ack -e 40 -c 0 -i 54 -a 0 -x {2.0 0.0 -1 ------- null}
+ -t 0.2910226 -s 2 -d 4 -p ack -e 40 -c 0 -i 55 -a 0 -x {2.0 0.0 20 ------- null}
- -t 0.2910226 -s 2 -d 4 -p ack -e 40 -c 0 -i 55 -a 0 -x {2.0 0.0 20 ------- null}
h -t 0.2910226 -s 2 -d 4 -p ack -e 40 -c 0 -i 55 -a 0 -x {2.0 0.0 -1 ------- null}
+ -t 0.2911292 -s 2 -d 4 -p ack -e 40 -c 0 -i 56 -a 0 -x {2.0 0.0 21 ------- null}
- -t 0.2911292 -s 2 -d 4 -p ack -e 40 -c 0 -i 56 -a 0 -x {2.0 0.0 21 ------- null}
h -t 0.2911292 -s 2 -d 4 -p ack -e 40 -c 0 -i 56 -a 0 -x {2.0 0.0 -1 ------- null}
+ -t 0.2912358 -s 2 -d 4 -p ack -e 40 -c 0 -i 57 -a 0 -x {2.0 0.0 22 ------- null}
- -t 0.2912358 -s 2 -d 4 -p ack -e 40 -c 0 -i 57 -a 0 -x {2.0 0.0 22 ------- null}
h -t 0.2912358 -s 2 -d 4 -p ack -e 40 -c 0 -i 57 -a 0 -x {2.0 0.0 -1 ------- null}
+ -t 0.2913424 -s 2 -d 4 -p ack -e 40 -c 0 -i 58 -a 0 -x {2.0 0.0 23 ------- null}
- -t 0.2913424 -s 2 -d 4 -p ack -e 40 -c 0 -i 58 -a 0 -x {2.0 0.0 23 ------- null}
h -t 0.2913424 -s 2 -d 4 -p ack -e 40 -c 0 -i 58 -a 0 -x {2.0 0.0 -1 ------- null}
+ -t 0.291449 -s 2 -d 4 -p ack -e 40 -c 0 -i 59 -a 0 -x {2.0 0.0 24 ------- null}
- -t 0.291449 -s 2 -d 4 -p ack -e 40 -c 0 -i 59 -a 0 -x {2.0 0.0 24 ------- null}
h -t 0.291449 -s 2 -d 4 -p ack -e 40 -c 0 -i 59 -a 0 -x {2.0 0.0 -1 ------- null}
r -t 0.30025 -s 4 -d 3 -p tcp -e 1040 -c 0 -i 46 -a 0 -x {1.0 3.0 3 ------- null}
h -t 0.30025 -s 3 -d 4 -p ack -e 40 -c 0 -i 60 -a 0 -x {3.0 1.0 3 ------- null}
r -t 0.3003566 -s 4 -d 3 -p tcp -e 1040 -c 0 -i 47 -a 0 -x {1.0 3.0 4 ------- null}
h -t 0.3003566 -s 3 -d 4 -p ack -e 40 -c 0 -i 61 -a 0 -x {3.0 1.0 4 ------- null}
r -t 0.3004632 -s 4 -d 3 -p tcp -e 1040 -c 0 -i 48 -a 0 -x {1.0 3.0 5 ------- null}
h -t 0.3004632 -s 3 -d 4 -p ack -e 40 -c 0 -i 62 -a 0 -x {3.0 1.0 5 ------- null}
r -t 0.3005698 -s 4 -d 3 -p tcp -e 1040 -c 0 -i 49 -a 0 -x {1.0 3.0 6 ------- null}
h -t 0.3005698 -s 3 -d 4 -p ack -e 40 -c 0 -i 63 -a 0 -x {3.0 1.0 6 ------- null}
r -t 0.3005814 -s 4 -d 0 -p ack -e 40 -c 0 -i 50 -a 0 -x {2.0 0.0 15 ------- null}
h -t 0.3005814 -s 0 -d 4 -p tcp -e 1040 -c 0 -i 64 -a 0 -x {0.0 2.0 25 ------- null}
r -t 0.3006066 -s 4 -d 0 -p ack -e 40 -c 0 -i 51 -a 0 -x {2.0 0.0 16 ------- null}
h -t 0.3006066 -s 0 -d 4 -p tcp -e 1040 -c 0 -i 65 -a 0 -x {0.0 2.0 26 ------- null}
r -t 0.3007132 -s 4 -d 0 -p ack -e 40 -c 0 -i 52 -a 0 -x {2.0 0.0 17 ------- null}
h -t 0.3007132 -s 0 -d 4 -p tcp -e 1040 -c 0 -i 66 -a 0 -x {0.0 2.0 27 ------- null}
r -t 0.3008198 -s 4 -d 0 -p ack -e 40 -c 0 -i 53 -a 0 -x {2.0 0.0 18 ------- null}
h -t 0.3008198 -s 0 -d 4 -p tcp -e 1040 -c 0 -i 67 -a 0 -x {0.0 2.0 28 ------- null}
r -t 0.3009264 -s 4 -d 0 -p ack -e 40 -c 0 -i 54 -a 0 -x {2.0 0.0 19 ------- null}
h -t 0.3009264 -s 0 -d 4 -p tcp -e 1040 -c 0 -i 68 -a 0 -x {0.0 2.0 29 ------- null}
r -t 0.301033 -s 4 -d 0 -p ack -e 40 -c 0 -i 55 -a 0 -x {2.0 0.0 20 ------- null}
h -t 0.301033 -s 0 -d 4 -p tcp -e 1040 -c 0 -i 69 -a 0 -x {0.0 2.0 30 ------- null}
r -t 0.3011396 -s 4 -d 0 -p ack -e 40 -c 0 -i 56 -a 0 -x {2.0 0.0 21 ------- null}
h -t 0.3011396 -s 0 -d 4 -p tcp -e 1040 -c 0 -i 70 -a 0 -x {0.0 2.0 31 ------- null}
r -t 0.3012462 -s 4 -d 0 -p ack -e 40 -c 0 -i 57 -a 0 -x {2.0 0.0 22 ------- null}
h -t 0.3012462 -s 0 -d 4 -p tcp -e 1040 -c 0 -i 71 -a 0 -x {0.0 2.0 32 ------- null}
r -t 0.3013528 -s 4 -d 0 -p ack -e 40 -c 0 -i 58 -a 0 -x {2.0 0.0 23 ------- null}
h -t 0.3013528 -s 0 -d 4 -p tcp -e 1040 -c 0 -i 72 -a 0 -x {0.0 2.0 33 ------- null}
r -t 0.3014594 -s 4 -d 0 -p ack -e 40 -c 0 -i 59 -a 0 -x {2.0 0.0 24 ------- null}
h -t 0.3014594 -s 0 -d 4 -p tcp -e 1040 -c 0 -i 73 -a 0 -x {0.0 2.0 34 ------- null}
+ -t 0.31025 -s 3 -d 4 -p ack -e 40 -c 0 -i 60 -a 0 -x {3.0 1.0 3 ------- null}
- -t 0.31025 -s 3 -d 4 -p ack -e 40 -c 0 -i 60 -a 0 -x {3.0 1.0 3 ------- null}
h -t 0.31025 -s 3 -d 4 -p ack -e 40 -c 0 -i 60 -a 0 -x {3.0 1.0 -1 ------- null}
+ -t 0.3103566 -s 3 -d 4 -p ack -e 40 -c 0 -i 61 -a 0 -x {3.0 1.0 4 ------- null}
- -t 0.3103566 -s 3 -d 4 -p ack -e 40 -c 0 -i 61 -a 0 -x {3.0 1.0 4 ------- null}
h -t 0.3103566 -s 3 -d 4 -p ack -e 40 -c 0 -i 61 -a 0 -x {3.0 1.0 -1 ------- null}
+ -t 0.3104632 -s 3 -d 4 -p ack -e 40 -c 0 -i 62 -a 0 -x {3.0 1.0 5 ------- null}
- -t 0.3104632 -s 3 -d 4 -p ack -e 40 -c 0 -i 62 -a 0 -x {3.0 1.0 5 ------- null}
h -t 0.3104632 -s 3 -d 4 -p ack -e 40 -c 0 -i 62 -a 0 -x {3.0 1.0 -1 ------- null}
+ -t 0.3105698 -s 3 -d 4 -p ack -e 40 -c 0 -i 63 -a 0 -x {3.0 1.0 6 ------- null}
- -t 0.3105698 -s 3 -d 4 -p ack -e 40 -c 0 -i 63 -a 0 -x {3.0 1.0 6 ------- null}
h -t 0.3105698 -s 3 -d 4 -p ack -e 40 -c 0 -i 63 -a 0 -x {3.0 1.0 -1 ------- null}
+ -t 0.3105814 -s 0 -d 4 -p tcp -e 1040 -c 0 -i 64 -a 0 -x {0.0 2.0 25 ------- null}
- -t 0.3105814 -s 0 -d 4 -p tcp -e 1040 -c 0 -i 64 -a 0 -x {0.0 2.0 25 ------- null}
h -t 0.3105814 -s 0 -d 4 -p tcp -e 1040 -c 0 -i 64 -a 0 -x {0.0 2.0 -1 ------- null}
+ -t 0.3106066 -s 0 -d 4 -p tcp -e 1040 -c 0 -i 65 -a 0 -x {0.0 2.0 26 ------- null}
- -t 0.310688 -s 0 -d 4 -p tcp -e 1040 -c 0 -i 65 -a 0 -x {0.0 2.0 26 ------- null}
h -t 0.310688 -s 0 -d 4 -p tcp -e 1040 -c 0 -i 65 -a 0 -x {0.0 2.0 -1 ------- null}
+ -t 0.3107132 -s 0 -d 4 -p tcp -e 1040 -c 0 -i 66 -a 0 -x {0.0 2.0 27 ------- null}
- -t 0.3107946 -s 0 -d 4 -p tcp -e 1040 -c 0 -i 66 -a 0 -x {0.0 2.0 27 ------- null}
h -t 0.3107946 -s 0 -d 4 -p tcp -e 1040 -c 0 -i 66 -a 0 -x {0.0 2.0 -1 ------- null}
+ -t 0.3108198 -s 0 -d 4 -p tcp -e 1040 -c 0 -i 67 -a 0 -x {0.0 2.0 28 ------- null}
- -t 0.3109012 -s 0 -d 4 -p tcp -e 1040 -c 0 -i 67 -a 0 -x {0.0 2.0 28 ------- null}
h -t 0.3109012 -s 0 -d 4 -p tcp -e 1040 -c 0 -i 67 -a 0 -x {0.0 2.0 -1 ------- null}
+ -t 0.3109264 -s 0 -d 4 -p tcp -e 1040 -c 0 -i 68 -a 0 -x {0.0 2.0 29 ------- null}
- -t 0.3110078 -s 0 -d 4 -p tcp -e 1040 -c 0 -i 68 -a 0 -x {0.0 2.0 29 ------- null}
h -t 0.3110078 -s 0 -d 4 -p tcp -e 1040 -c 0 -i 68 -a 0 -x {0.0 2.0 -1 ------- null}
+ -t 0.311033 -s 0 -d 4 -p tcp -e 1040 -c 0 -i 69 -a 0 -x {0.0 2.0 30 ------- null}
- -t 0.3111144 -s 0 -d 4 -p tcp -e 1040 -c 0 -i 69 -a 0 -x {0.0 2.0 30 ------- null}
h -t 0.3111144 -s 0 -d 4 -p tcp -e 1040 -c 0 -i 69 -a 0 -x {0.0 2.0 -1 ------- null}
+ -t 0.3111396 -s 0 -d 4 -p tcp -e 1040 -c 0 -i 70 -a 0 -x {0.0 2.0 31 ------- null}
- -t 0.311221 -s 0 -d 4 -p tcp -e 1040 -c 0 -i 70 -a 0 -x {0.0 2.0 31 ------- null}
h -t 0.311221 -s 0 -d 4 -p tcp -e 1040 -c 0 -i 70 -a 0 -x {0.0 2.0 -1 ------- null}
+ -t 0.3112462 -s 0 -d 4 -p tcp -e 1040 -c 0 -i 71 -a 0 -x {0.0 2.0 32 ------- null}
- -t 0.3113276 -s 0 -d 4 -p tcp -e 1040 -c 0 -i 71 -a 0 -x {0.0 2.0 32 ------- null}
h -t 0.3113276 -s 0 -d 4 -p tcp -e 1040 -c 0 -i 71 -a 0 -x {0.0 2.0 -1 ------- null}
+ -t 0.3113528 -s 0 -d 4 -p tcp -e 1040 -c 0 -i 72 -a 0 -x {0.0 2.0 33 ------- null}
- -t 0.3114342 -s 0 -d 4 -p tcp -e 1040 -c 0 -i 72 -a 0 -x {0.0 2.0 33 ------- null}
h -t 0.3114342 -s 0 -d 4 -p tcp -e 1040 -c 0 -i 72 -a 0 -x {0.0 2.0 -1 ------- null}
+ -t 0.3114594 -s 0 -d 4 -p tcp -e 1040 -c 0 -i 73 -a 0 -x {0.0 2.0 34 ------- null}
- -t 0.3115408 -s 0 -d 4 -p tcp -e 1040 -c 0 -i 73 -a 0 -x {0.0 2.0 34 ------- null}