+ 0.1 0 2 cbr 210 ------- 1 0.0 3.0 0 0
- 0.1 0 2 cbr 210 ------- 1 0.0 3.0 0 0
+ 0.10375 0 2 cbr 210 ------- 1 0.0 3.0 1 1
- 0.10375 0 2 cbr 210 ------- 1 0.0 3.0 1 1
+ 0.1075 0 2 cbr 210 ------- 1 0.0 3.0 2 2
- 0.1075 0 2 cbr 210 ------- 1 0.0 3.0 2 2
r 0.110017 0 2 cbr 210 ------- 1 0.0 3.0 0 0
+ 0.110017 2 3 cbr 210 ------- 1 0.0 3.0 0 0
- 0.110017 2 3 cbr 210 ------- 1 0.0 3.0 0 0
+ 0.11125 0 2 cbr 210 ------- 1 0.0 3.0 3 3
- 0.11125 0 2 cbr 210 ------- 1 0.0 3.0 3 3
r 0.113767 0 2 cbr 210 ------- 1 0.0 3.0 1 1
+ 0.113767 2 3 cbr 210 ------- 1 0.0 3.0 1 1
- 0.113767 2 3 cbr 210 ------- 1 0.0 3.0 1 1
+ 0.115 0 2 cbr 210 ------- 1 0.0 3.0 4 4
- 0.115 0 2 cbr 210 ------- 1 0.0 3.0 4 4
r 0.117517 0 2 cbr 210 ------- 1 0.0 3.0 2 2
+ 0.117517 2 3 cbr 210 ------- 1 0.0 3.0 2 2
- 0.117517 2 3 cbr 210 ------- 1 0.0 3.0 2 2
+ 0.11875 0 2 cbr 210 ------- 1 0.0 3.0 5 5
- 0.11875 0 2 cbr 210 ------- 1 0.0 3.0 5 5
r 0.121267 0 2 cbr 210 ------- 1 0.0 3.0 3 3
+ 0.121267 2 3 cbr 210 ------- 1 0.0 3.0 3 3
- 0.121267 2 3 cbr 210 ------- 1 0.0 3.0 3 3
r 0.121697 2 3 cbr 210 ------- 1 0.0 3.0 0 0
+ 0.1225 0 2 cbr 210 ------- 1 0.0 3.0 6 6
- 0.1225 0 2 cbr 210 ------- 1 0.0 3.0 6 6
r 0.125017 0 2 cbr 210 ------- 1 0.0 3.0 4 4
+ 0.125017 2 3 cbr 210 ------- 1 0.0 3.0 4 4
- 0.125017 2 3 cbr 210 ------- 1 0.0 3.0 4 4
r 0.125447 2 3 cbr 210 ------- 1 0.0 3.0 1 1
+ 0.12625 0 2 cbr 210 ------- 1 0.0 3.0 7 7
- 0.12625 0 2 cbr 210 ------- 1 0.0 3.0 7 7
r 0.128767 0 2 cbr 210 ------- 1 0.0 3.0 5 5
+ 0.128767 2 3 cbr 210 ------- 1 0.0 3.0 5 5
- 0.128767 2 3 cbr 210 ------- 1 0.0 3.0 5 5
r 0.129197 2 3 cbr 210 ------- 1 0.0 3.0 2 2
+ 0.13 0 2 cbr 210 ------- 1 0.0 3.0 8 8
- 0.13 0 2 cbr 210 ------- 1 0.0 3.0 8 8
r 0.132517 0 2 cbr 210 ------- 1 0.0 3.0 6 6
+ 0.132517 2 3 cbr 210 ------- 1 0.0 3.0 6 6
- 0.132517 2 3 cbr 210 ------- 1 0.0 3.0 6 6
r 0.132947 2 3 cbr 210 ------- 1 0.0 3.0 3 3
+ 0.13375 0 2 cbr 210 ------- 1 0.0 3.0 9 9
- 0.13375 0 2 cbr 210 ------- 1 0.0 3.0 9 9
r 0.136267 0 2 cbr 210 ------- 1 0.0 3.0 7 7
+ 0.136267 2 3 cbr 210 ------- 1 0.0 3.0 7 7
- 0.136267 2 3 cbr 210 ------- 1 0.0 3.0 7 7
r 0.136697 2 3 cbr 210 ------- 1 0.0 3.0 4 4
+ 0.1375 0 2 cbr 210 ------- 1 0.0 3.0 10 10
- 0.1375 0 2 cbr 210 ------- 1 0.0 3.0 10 10
r 0.140017 0 2 cbr 210 ------- 1 0.0 3.0 8 8
+ 0.140017 2 3 cbr 210 ------- 1 0.0 3.0 8 8
- 0.140017 2 3 cbr 210 ------- 1 0.0 3.0 8 8
r 0.140447 2 3 cbr 210 ------- 1 0.0 3.0 5 5
+ 0.14125 0 2 cbr 210 ------- 1 0.0 3.0 11 11
- 0.14125 0 2 cbr 210 ------- 1 0.0 3.0 11 11
r 0.143767 0 2 cbr 210 ------- 1 0.0 3.0 9 9
+ 0.143767 2 3 cbr 210 ------- 1 0.0 3.0 9 9
- 0.143767 2 3 cbr 210 ------- 1 0.0 3.0 9 9
r 0.144197 2 3 cbr 210 ------- 1 0.0 3.0 6 6
+ 0.145 0 2 cbr 210 ------- 1 0.0 3.0 12 12
- 0.145 0 2 cbr 210 ------- 1 0.0 3.0 12 12
r 0.147517 0 2 cbr 210 ------- 1 0.0 3.0 10 10
+ 0.147517 2 3 cbr 210 ------- 1 0.0 3.0 10 10
- 0.147517 2 3 cbr 210 ------- 1 0.0 3.0 10 10
r 0.147947 2 3 cbr 210 ------- 1 0.0 3.0 7 7
+ 0.14875 0 2 cbr 210 ------- 1 0.0 3.0 13 13
- 0.14875 0 2 cbr 210 ------- 1 0.0 3.0 13 13
r 0.151267 0 2 cbr 210 ------- 1 0.0 3.0 11 11
+ 0.151267 2 3 cbr 210 ------- 1 0.0 3.0 11 11
- 0.151267 2 3 cbr 210 ------- 1 0.0 3.0 11 11
r 0.151697 2 3 cbr 210 ------- 1 0.0 3.0 8 8
+ 0.1525 0 2 cbr 210 ------- 1 0.0 3.0 14 14
- 0.1525 0 2 cbr 210 ------- 1 0.0 3.0 14 14
r 0.155017 0 2 cbr 210 ------- 1 0.0 3.0 12 12
+ 0.155017 2 3 cbr 210 ------- 1 0.0 3.0 12 12
- 0.155017 2 3 cbr 210 ------- 1 0.0 3.0 12 12
r 0.155447 2 3 cbr 210 ------- 1 0.0 3.0 9 9
+ 0.15625 0 2 cbr 210 ------- 1 0.0 3.0 15 15
- 0.15625 0 2 cbr 210 ------- 1 0.0 3.0 15 15
r 0.158767 0 2 cbr 210 ------- 1 0.0 3.0 13 13
+ 0.158767 2 3 cbr 210 ------- 1 0.0 3.0 13 13
- 0.158767 2 3 cbr 210 ------- 1 0.0 3.0 13 13
r 0.159197 2 3 cbr 210 ------- 1 0.0 3.0 10 10
+ 0.16 0 2 cbr 210 ------- 1 0.0 3.0 16 16
- 0.16 0 2 cbr 210 ------- 1 0.0 3.0 16 16
r 0.162517 0 2 cbr 210 ------- 1 0.0 3.0 14 14
+ 0.162517 2 3 cbr 210 ------- 1 0.0 3.0 14 14
- 0.162517 2 3 cbr 210 ------- 1 0.0 3.0 14 14
r 0.162947 2 3 cbr 210 ------- 1 0.0 3.0 11 11
+ 0.16375 0 2 cbr 210 ------- 1 0.0 3.0 17 17
- 0.16375 0 2 cbr 210 ------- 1 0.0 3.0 17 17
r 0.166267 0 2 cbr 210 ------- 1 0.0 3.0 15 15
+ 0.166267 2 3 cbr 210 ------- 1 0.0 3.0 15 15
- 0.166267 2 3 cbr 210 ------- 1 0.0 3.0 15 15
r 0.166697 2 3 cbr 210 ------- 1 0.0 3.0 12 12
+ 0.1675 0 2 cbr 210 ------- 1 0.0 3.0 18 18
- 0.1675 0 2 cbr 210 ------- 1 0.0 3.0 18 18
r 0.170017 0 2 cbr 210 ------- 1 0.0 3.0 16 16
+ 0.170017 2 3 cbr 210 ------- 1 0.0 3.0 16 16
- 0.170017 2 3 cbr 210 ------- 1 0.0 3.0 16 16
r 0.170447 2 3 cbr 210 ------- 1 0.0 3.0 13 13
+ 0.17125 0 2 cbr 210 ------- 1 0.0 3.0 19 19
- 0.17125 0 2 cbr 210 ------- 1 0.0 3.0 19 19
r 0.173767 0 2 cbr 210 ------- 1 0.0 3.0 17 17
+ 0.173767 2 3 cbr 210 ------- 1 0.0 3.0 17 17
- 0.173767 2 3 cbr 210 ------- 1 0.0 3.0 17 17
r 0.174197 2 3 cbr 210 ------- 1 0.0 3.0 14 14
+ 0.175 0 2 cbr 210 ------- 1 0.0 3.0 20 20
- 0.175 0 2 cbr 210 ------- 1 0.0 3.0 20 20
r 0.177517 0 2 cbr 210 ------- 1 0.0 3.0 18 18
+ 0.177517 2 3 cbr 210 ------- 1 0.0 3.0 18 18
- 0.177517 2 3 cbr 210 ------- 1 0.0 3.0 18 18
r 0.177947 2 3 cbr 210 ------- 1 0.0 3.0 15 15
+ 0.17875 0 2 cbr 210 ------- 1 0.0 3.0 21 21
- 0.17875 0 2 cbr 210 ------- 1 0.0 3.0 21 21
r 0.181267 0 2 cbr 210 ------- 1 0.0 3.0 19 19
+ 0.181267 2 3 cbr 210 ------- 1 0.0 3.0 19 19
- 0.181267 2 3 cbr 210 ------- 1 0.0 3.0 19 19
r 0.181697 2 3 cbr 210 ------- 1 0.0 3.0 16 16
+ 0.1825 0 2 cbr 210 ------- 1 0.0 3.0 22 22
- 0.1825 0 2 cbr 210 ------- 1 0.0 3.0 22 22
r 0.185017 0 2 cbr 210 ------- 1 0.0 3.0 20 20
+ 0.185017 2 3 cbr 210 ------- 1 0.0 3.0 20 20
- 0.185017 2 3 cbr 210 ------- 1 0.0 3.0 20 20
r 0.185447 2 3 cbr 210 ------- 1 0.0 3.0 17 17
+ 0.18625 0 2 cbr 210 ------- 1 0.0 3.0 23 23
- 0.18625 0 2 cbr 210 ------- 1 0.0 3.0 23 23
r 0.188767 0 2 cbr 210 ------- 1 0.0 3.0 21 21
+ 0.188767 2 3 cbr 210 ------- 1 0.0 3.0 21 21
- 0.188767 2 3 cbr 210 ------- 1 0.0 3.0 21 21
r 0.189197 2 3 cbr 210 ------- 1 0.0 3.0 18 18
+ 0.19 0 2 cbr 210 ------- 1 0.0 3.0 24 24
- 0.19 0 2 cbr 210 ------- 1 0.0 3.0 24 24
r 0.192517 0 2 cbr 210 ------- 1 0.0 3.0 22 22
+ 0.192517 2 3 cbr 210 ------- 1 0.0 3.0 22 22
- 0.192517 2 3 cbr 210 ------- 1 0.0 3.0 22 22
r 0.192947 2 3 cbr 210 ------- 1 0.0 3.0 19 19
+ 0.19375 0 2 cbr 210 ------- 1 0.0 3.0 25 25
- 0.19375 0 2 cbr 210 ------- 1 0.0 3.0 25 25
r 0.196267 0 2 cbr 210 ------- 1 0.0 3.0 23 23
+ 0.196267 2 3 cbr 210 ------- 1 0.0 3.0 23 23
- 0.196267 2 3 cbr 210 ------- 1 0.0 3.0 23 23
r 0.196697 2 3 cbr 210 ------- 1 0.0 3.0 20 20
+ 0.1975 0 2 cbr 210 ------- 1 0.0 3.0 26 26
- 0.1975 0 2 cbr 210 ------- 1 0.0 3.0 26 26
r 0.200017 0 2 cbr 210 ------- 1 0.0 3.0 24 24
+ 0.200017 2 3 cbr 210 ------- 1 0.0 3.0 24 24
- 0.200017 2 3 cbr 210 ------- 1 0.0 3.0 24 24
r 0.200447 2 3 cbr 210 ------- 1 0.0 3.0 21 21
+ 0.20125 0 2 cbr 210 ------- 1 0.0 3.0 27 27
- 0.20125 0 2 cbr 210 ------- 1 0.0 3.0 27 27
r 0.203767 0 2 cbr 210 ------- 1 0.0 3.0 25 25
+ 0.203767 2 3 cbr 210 ------- 1 0.0 3.0 25 25
- 0.203767 2 3 cbr 210 ------- 1 0.0 3.0 25 25
r 0.204197 2 3 cbr 210 ------- 1 0.0 3.0 22 22
+ 0.205 0 2 cbr 210 ------- 1 0.0 3.0 28 28
- 0.205 0 2 cbr 210 ------- 1 0.0 3.0 28 28
r 0.207517 0 2 cbr 210 ------- 1 0.0 3.0 26 26
+ 0.207517 2 3 cbr 210 ------- 1 0.0 3.0 26 26
- 0.207517 2 3 cbr 210 ------- 1 0.0 3.0 26 26
r 0.207947 2 3 cbr 210 ------- 1 0.0 3.0 23 23
+ 0.20875 0 2 cbr 210 ------- 1 0.0 3.0 29 29
- 0.20875 0 2 cbr 210 ------- 1 0.0 3.0 29 29
r 0.211267 0 2 cbr 210 ------- 1 0.0 3.0 27 27
+ 0.211267 2 3 cbr 210 ------- 1 0.0 3.0 27 27
- 0.211267 2 3 cbr 210 ------- 1 0.0 3.0 27 27
r 0.211697 2 3 cbr 210 ------- 1 0.0 3.0 24 24
+ 0.2125 0 2 cbr 210 ------- 1 0.0 3.0 30 30
- 0.2125 0 2 cbr 210 ------- 1 0.0 3.0 30 30
r 0.215017 0 2 cbr 210 ------- 1 0.0 3.0 28 28
+ 0.215017 2 3 cbr 210 ------- 1 0.0 3.0 28 28
- 0.215017 2 3 cbr 210 ------- 1 0.0 3.0 28 28
r 0.215447 2 3 cbr 210 ------- 1 0.0 3.0 25 25
+ 0.21625 0 2 cbr 210 ------- 1 0.0 3.0 31 31
- 0.21625 0 2 cbr 210 ------- 1 0.0 3.0 31 31
r 0.218767 0 2 cbr 210 ------- 1 0.0 3.0 29 29
+ 0.218767 2 3 cbr 210 ------- 1 0.0 3.0 29 29
- 0.218767 2 3 cbr 210 ------- 1 0.0 3.0 29 29
r 0.219197 2 3 cbr 210 ------- 1 0.0 3.0 26 26
+ 0.22 0 2 cbr 210 ------- 1 0.0 3.0 32 32
- 0.22 0 2 cbr 210 ------- 1 0.0 3.0 32 32
r 0.222517 0 2 cbr 210 ------- 1 0.0 3.0 30 30
+ 0.222517 2 3 cbr 210 ------- 1 0.0 3.0 30 30
- 0.222517 2 3 cbr 210 ------- 1 0.0 3.0 30 30
r 0.222947 2 3 cbr 210 ------- 1 0.0 3.0 27 27
+ 0.22375 0 2 cbr 210 ------- 1 0.0 3.0 33 33
- 0.22375 0 2 cbr 210 ------- 1 0.0 3.0 33 33
r 0.226267 0 2 cbr 210 ------- 1 0.0 3.0 31 31
+ 0.226267 2 3 cbr 210 ------- 1 0.0 3.0 31 31
- 0.226267 2 3 cbr 210 ------- 1 0.0 3.0 31 31
r 0.226697 2 3 cbr 210 ------- 1 0.0 3.0 28 28
+ 0.2275 0 2 cbr 210 ------- 1 0.0 3.0 34 34
- 0.2275 0 2 cbr 210 ------- 1 0.0 3.0 34 34
r 0.230017 0 2 cbr 210 ------- 1 0.0 3.0 32 32
+ 0.230017 2 3 cbr 210 ------- 1 0.0 3.0 32 32
- 0.230017 2 3 cbr 210 ------- 1 0.0 3.0 32 32
r 0.230447 2 3 cbr 210 ------- 1 0.0 3.0 29 29
+ 0.23125 0 2 cbr 210 ------- 1 0.0 3.0 35 35
- 0.23125 0 2 cbr 210 ------- 1 0.0 3.0 35 35
r 0.233767 0 2 cbr 210 ------- 1 0.0 3.0 33 33
+ 0.233767 2 3 cbr 210 ------- 1 0.0 3.0 33 33
- 0.233767 2 3 cbr 210 ------- 1 0.0 3.0 33 33
r 0.234197 2 3 cbr 210 ------- 1 0.0 3.0 30 30
+ 0.235 0 2 cbr 210 ------- 1 0.0 3.0 36 36
- 0.235 0 2 cbr 210 ------- 1 0.0 3.0 36 36
r 0.237517 0 2 cbr 210 ------- 1 0.0 3.0 34 34
+ 0.237517 2 3 cbr 210 ------- 1 0.0 3.0 34 34
- 0.237517 2 3 cbr 210 ------- 1 0.0 3.0 34 34
r 0.237947 2 3 cbr 210 ------- 1 0.0 3.0 31 31
+ 0.23875 0 2 cbr 210 ------- 1 0.0 3.0 37 37
- 0.23875 0 2 cbr 210 ------- 1 0.0 3.0 37 37
r 0.241267 0 2 cbr 210 ------- 1 0.0 3.0 35 35
+ 0.241267 2 3 cbr 210 ------- 1 0.0 3.0 35 35
- 0.241267 2 3 cbr 210 ------- 1 0.0 3.0 35 35
r 0.241697 2 3 cbr 210 ------- 1 0.0 3.0 32 32
+ 0.2425 0 2 cbr 210 ------- 1 0.0 3.0 38 38
- 0.2425 0 2 cbr 210 ------- 1 0.0 3.0 38 38
r 0.245017 0 2 cbr 210 ------- 1 0.0 3.0 36 36
+ 0.245017 2 3 cbr 210 ------- 1 0.0 3.0 36 36
- 0.245017 2 3 cbr 210 ------- 1 0.0 3.0 36 36
r 0.245447 2 3 cbr 210 ------- 1 0.0 3.0 33 33
+ 0.24625 0 2 cbr 210 ------- 1 0.0 3.0 39 39
- 0.24625 0 2 cbr 210 ------- 1 0.0 3.0 39 39
r 0.248767 0 2 cbr 210 ------- 1 0.0 3.0 37 37
+ 0.248767 2 3 cbr 210 ------- 1 0.0 3.0 37 37
- 0.248767 2 3 cbr 210 ------- 1 0.0 3.0 37 37
r 0.249197 2 3 cbr 210 ------- 1 0.0 3.0 34 34
+ 0.25 0 2 cbr 210 ------- 1 0.0 3.0 40 40
- 0.25 0 2 cbr 210 ------- 1 0.0 3.0 40 40
r 0.252517 0 2 cbr 210 ------- 1 0.0 3.0 38 38
+ 0.252517 2 3 cbr 210 ------- 1 0.0 3.0 38 38
- 0.252517 2 3 cbr 210 ------- 1 0.0 3.0 38 38
r 0.252947 2 3 cbr 210 ------- 1 0.0 3.0 35 35
+ 0.25375 0 2 cbr 210 ------- 1 0.0 3.0 41 41
- 0.25375 0 2 cbr 210 ------- 1 0.0 3.0 41 41
r 0.256267 0 2 cbr 210 ------- 1 0.0 3.0 39 39
+ 0.256267 2 3 cbr 210 ------- 1 0.0 3.0 39 39
- 0.256267 2 3 cbr 210 ------- 1 0.0 3.0 39 39
r 0.256697 2 3 cbr 210 ------- 1 0.0 3.0 36 36
+ 0.2575 0 2 cbr 210 ------- 1 0.0 3.0 42 42
- 0.2575 0 2 cbr 210 ------- 1 0.0 3.0 42 42
r 0.260017 0 2 cbr 210 ------- 1 0.0 3.0 40 40
+ 0.260017 2 3 cbr 210 ------- 1 0.0 3.0 40 40
- 0.260017 2 3 cbr 210 ------- 1 0.0 3.0 40 40
r 0.260447 2 3 cbr 210 ------- 1 0.0 3.0 37 37
+ 0.26125 0 2 cbr 210 ------- 1 0.0 3.0 43 43
- 0.26125 0 2 cbr 210 ------- 1 0.0 3.0 43 43
r 0.263767 0 2 cbr 210 ------- 1 0.0 3.0 41 41
+ 0.263767 2 3 cbr 210 ------- 1 0.0 3.0 41 41
- 0.263767 2 3 cbr 210 ------- 1 0.0 3.0 41 41
r 0.264197 2 3 cbr 210 ------- 1 0.0 3.0 38 38
+ 0.265 0 2 cbr 210 ------- 1 0.0 3.0 44 44
- 0.265 0 2 cbr 210 ------- 1 0.0 3.0 44 44
r 0.267517 0 2 cbr 210 ------- 1 0.0 3.0 42 42
+ 0.267517 2 3 cbr 210 ------- 1 0.0 3.0 42 42
- 0.267517 2 3 cbr 210 ------- 1 0.0 3.0 42 42
r 0.267947 2 3 cbr 210 ------- 1 0.0 3.0 39 39
+ 0.26875 0 2 cbr 210 ------- 1 0.0 3.0 45 45
- 0.26875 0 2 cbr 210 ------- 1 0.0 3.0 45 45
r 0.271267 0 2 cbr 210 ------- 1 0.0 3.0 43 43
+ 0.271267 2 3 cbr 210 ------- 1 0.0 3.0 43 43
- 0.271267 2 3 cbr 210 ------- 1 0.0 3.0 43 43
r 0.271697 2 3 cbr 210 ------- 1 0.0 3.0 40 40
+ 0.2725 0 2 cbr 210 ------- 1 0.0 3.0 46 46
- 0.2725 0 2 cbr 210 ------- 1 0.0 3.0 46 46
r 0.275017 0 2 cbr 210 ------- 1 0.0 3.0 44 44
+ 0.275017 2 3 cbr 210 ------- 1 0.0 3.0 44 44
- 0.275017 2 3 cbr 210 ------- 1 0.0 3.0 44 44
r 0.275447 2 3 cbr 210 ------- 1 0.0 3.0 41 41
+ 0.27625 0 2 cbr 210 ------- 1 0.0 3.0 47 47
- 0.27625 0 2 cbr 210 ------- 1 0.0 3.0 47 47
r 0.278767 0 2 cbr 210 ------- 1 0.0 3.0 45 45
+ 0.278767 2 3 cbr 210 ------- 1 0.0 3.0 45 45
- 0.278767 2 3 cbr 210 ------- 1 0.0 3.0 45 45
r 0.279197 2 3 cbr 210 ------- 1 0.0 3.0 42 42
+ 0.28 0 2 cbr 210 ------- 1 0.0 3.0 48 48
- 0.28 0 2 cbr 210 ------- 1 0.0 3.0 48 48
r 0.282517 0 2 cbr 210 ------- 1 0.0 3.0 46 46
+ 0.282517 2 3 cbr 210 ------- 1 0.0 3.0 46 46
- 0.282517 2 3 cbr 210 ------- 1 0.0 3.0 46 46
r 0.282947 2 3 cbr 210 ------- 1 0.0 3.0 43 43
+ 0.28375 0 2 cbr 210 ------- 1 0.0 3.0 49 49
- 0.28375 0 2 cbr 210 ------- 1 0.0 3.0 49 49
r 0.286267 0 2 cbr 210 ------- 1 0.0 3.0 47 47
+ 0.286267 2 3 cbr 210 ------- 1 0.0 3.0 47 47
- 0.286267 2 3 cbr 210 ------- 1 0.0 3.0 47 47
r 0.286697 2 3 cbr 210 ------- 1 0.0 3.0 44 44
+ 0.2875 0 2 cbr 210 ------- 1 0.0 3.0 50 50
- 0.2875 0 2 cbr 210 ------- 1 0.0 3.0 50 50
r 0.290017 0 2 cbr 210 ------- 1 0.0 3.0 48 48
+ 0.290017 2 3 cbr 210 ------- 1 0.0 3.0 48 48
- 0.290017 2 3 cbr 210 ------- 1 0.0 3.0 48 48
r 0.290447 2 3 cbr 210 ------- 1 0.0 3.0 45 45
+ 0.29125 0 2 cbr 210 ------- 1 0.0 3.0 51 51
- 0.29125 0 2 cbr 210 ------- 1 0.0 3.0 51 51
r 0.293767 0 2 cbr 210 ------- 1 0.0 3.0 49 49
+ 0.293767 2 3 cbr 210 ------- 1 0.0 3.0 49 49
- 0.293767 2 3 cbr 210 ------- 1 0.0 3.0 49 49
r 0.294197 2 3 cbr 210 ------- 1 0.0 3.0 46 46
+ 0.295 0 2 cbr 210 ------- 1 0.0 3.0 52 52
- 0.295 0 2 cbr 210 ------- 1 0.0 3.0 52 52
r 0.297517 0 2 cbr 210 ------- 1 0.0 3.0 50 50
+ 0.297517 2 3 cbr 210 ------- 1 0.0 3.0 50 50
- 0.297517 2 3 cbr 210 ------- 1 0.0 3.0 50 50
r 0.297947 2 3 cbr 210 ------- 1 0.0 3.0 47 47
+ 0.29875 0 2 cbr 210 ------- 1 0.0 3.0 53 53
- 0.29875 0 2 cbr 210 ------- 1 0.0 3.0 53 53
r 0.301267 0 2 cbr 210 ------- 1 0.0 3.0 51 51
+ 0.301267 2 3 cbr 210 ------- 1 0.0 3.0 51 51
- 0.301267 2 3 cbr 210 ------- 1 0.0 3.0 51 51
r 0.301697 2 3 cbr 210 ------- 1 0.0 3.0 48 48
+ 0.3025 0 2 cbr 210 ------- 1 0.0 3.0 54 54
- 0.3025 0 2 cbr 210 ------- 1 0.0 3.0 54 54
r 0.305017 0 2 cbr 210 ------- 1 0.0 3.0 52 52
+ 0.305017 2 3 cbr 210 ------- 1 0.0 3.0 52 52
- 0.305017 2 3 cbr 210 ------- 1 0.0 3.0 52 52
r 0.305447 2 3 cbr 210 ------- 1 0.0 3.0 49 49
+ 0.30625 0 2 cbr 210 ------- 1 0.0 3.0 55 55
- 0.30625 0 2 cbr 210 ------- 1 0.0 3.0 55 55
r 0.308767 0 2 cbr 210 ------- 1 0.0 3.0 53 53
+ 0.308767 2 3 cbr 210 ------- 1 0.0 3.0 53 53
- 0.308767 2 3 cbr 210 ------- 1 0.0 3.0 53 53
r 0.309197 2 3 cbr 210 ------- 1 0.0 3.0 50 50
+ 0.31 0 2 cbr 210 ------- 1 0.0 3.0 56 56
- 0.31 0 2 cbr 210 ------- 1 0.0 3.0 56 56
r 0.312517 0 2 cbr 210 ------- 1 0.0 3.0 54 54
+ 0.312517 2 3 cbr 210 ------- 1 0.0 3.0 54 54
- 0.312517 2 3 cbr 210 ------- 1 0.0 3.0 54 54
r 0.312947 2 3 cbr 210 ------- 1 0.0 3.0 51 51
+ 0.31375 0 2 cbr 210 ------- 1 0.0 3.0 57 57
- 0.31375 0 2 cbr 210 ------- 1 0.0 3.0 57 57
r 0.316267 0 2 cbr 210 ------- 1 0.0 3.0 55 55
+ 0.316267 2 3 cbr 210 ------- 1 0.0 3.0 55 55
- 0.316267 2 3 cbr 210 ------- 1 0.0 3.0 55 55
r 0.316697 2 3 cbr 210 ------- 1 0.0 3.0 52 52
+ 0.3175 0 2 cbr 210 ------- 1 0.0 3.0 58 58
- 0.3175 0 2 cbr 210 ------- 1 0.0 3.0 58 58
r 0.320017 0 2 cbr 210 ------- 1 0.0 3.0 56 56
+ 0.320017 2 3 cbr 210 ------- 1 0.0 3.0 56 56
- 0.320017 2 3 cbr 210 ------- 1 0.0 3.0 56 56
r 0.320447 2 3 cbr 210 ------- 1 0.0 3.0 53 53
+ 0.32125 0 2 cbr 210 ------- 1 0.0 3.0 59 59
- 0.32125 0 2 cbr 210 ------- 1 0.0 3.0 59 59
r 0.323767 0 2 cbr 210 ------- 1 0.0 3.0 57 57
+ 0.323767 2 3 cbr 210 ------- 1 0.0 3.0 57 57
- 0.323767 2 3 cbr 210 ------- 1 0.0 3.0 57 57
r 0.324197 2 3 cbr 210 ------- 1 0.0 3.0 54 54
+ 0.325 0 2 cbr 210 ------- 1 0.0 3.0 60 60
- 0.325 0 2 cbr 210 ------- 1 0.0 3.0 60 60
r 0.327517 0 2 cbr 210 ------- 1 0.0 3.0 58 58
+ 0.327517 2 3 cbr 210 ------- 1 0.0 3.0 58 58
- 0.327517 2 3 cbr 210 ------- 1 0.0 3.0 58 58
r 0.327947 2 3 cbr 210 ------- 1 0.0 3.0 55 55
+ 0.32875 0 2 cbr 210 ------- 1 0.0 3.0 61 61
- 0.32875 0 2 cbr 210 ------- 1 0.0 3.0 61 61
r 0.331267 0 2 cbr 210 ------- 1 0.0 3.0 59 59
+ 0.331267 2 3 cbr 210 ------- 1 0.0 3.0 59 59
- 0.331267 2 3 cbr 210 ------- 1 0.0 3.0 59 59
r 0.331697 2 3 cbr 210 ------- 1 0.0 3.0 56 56
+ 0.3325 0 2 cbr 210 ------- 1 0.0 3.0 62 62
- 0.3325 0 2 cbr 210 ------- 1 0.0 3.0 62 62
r 0.335017 0 2 cbr 210 ------- 1 0.0 3.0 60 60
+ 0.335017 2 3 cbr 210 ------- 1 0.0 3.0 60 60
- 0.335017 2 3 cbr 210 ------- 1 0.0 3.0 60 60
r 0.335447 2 3 cbr 210 ------- 1 0.0 3.0 57 57
+ 0.33625 0 2 cbr 210 ------- 1 0.0 3.0 63 63
- 0.33625 0 2 cbr 210 ------- 1 0.0 3.0 63 63
r 0.338767 0 2 cbr 210 ------- 1 0.0 3.0 61 61
+ 0.338767 2 3 cbr 210 ------- 1 0.0 3.0 61 61
- 0.338767 2 3 cbr 210 ------- 1 0.0 3.0 61 61
r 0.339197 2 3 cbr 210 ------- 1 0.0 3.0 58 58
+ 0.34 0 2 cbr 210 ------- 1 0.0 3.0 64 64
- 0.34 0 2 cbr 210 ------- 1 0.0 3.0 64 64
r 0.342517 0 2 cbr 210 ------- 1 0.0 3.0 62 62
+ 0.342517 2 3 cbr 210 ------- 1 0.0 3.0 62 62
- 0.342517 2 3 cbr 210 ------- 1 0.0 3.0 62 62
r 0.342947 2 3 cbr 210 ------- 1 0.0 3.0 59 59
+ 0.34375 0 2 cbr 210 ------- 1 0.0 3.0 65 65
- 0.34375 0 2 cbr 210 ------- 1 0.0 3.0 65 65
r 0.346267 0 2 cbr 210 ------- 1 0.0 3.0 63 63
+ 0.346267 2 3 cbr 210 ------- 1 0.0 3.0 63 63
- 0.346267 2 3 cbr 210 ------- 1 0.0 3.0 63 63
r 0.346697 2 3 cbr 210 ------- 1 0.0 3.0 60 60
+ 0.3475 0 2 cbr 210 ------- 1 0.0 3.0 66 66
- 0.3475 0 2 cbr 210 ------- 1 0.0 3.0 66 66
r 0.350017 0 2 cbr 210 ------- 1 0.0 3.0 64 64
+ 0.350017 2 3 cbr 210 ------- 1 0.0 3.0 64 64
- 0.350017 2 3 cbr 210 ------- 1 0.0 3.0 64 64
r 0.350447 2 3 cbr 210 ------- 1 0.0 3.0 61 61
+ 0.35125 0 2 cbr 210 ------- 1 0.0 3.0 67 67
- 0.35125 0 2 cbr 210 ------- 1 0.0 3.0 67 67
r 0.353767 0 2 cbr 210 ------- 1 0.0 3.0 65 65
+ 0.353767 2 3 cbr 210 ------- 1 0.0 3.0 65 65
- 0.353767 2 3 cbr 210 ------- 1 0.0 3.0 65 65
r 0.354197 2 3 cbr 210 ------- 1 0.0 3.0 62 62
+ 0.355 0 2 cbr 210 ------- 1 0.0 3.0 68 68
- 0.355 0 2 cbr 210 ------- 1 0.0 3.0 68 68
r 0.357517 0 2 cbr 210 ------- 1 0.0 3.0 66 66
+ 0.357517 2 3 cbr 210 ------- 1 0.0 3.0 66 66
- 0.357517 2 3 cbr 210 ------- 1 0.0 3.0 66 66
r 0.357947 2 3 cbr 210 ------- 1 0.0 3.0 63 63
+ 0.35875 0 2 cbr 210 ------- 1 0.0 3.0 69 69
- 0.35875 0 2 cbr 210 ------- 1 0.0 3.0 69 69
r 0.361267 0 2 cbr 210 ------- 1 0.0 3.0 67 67
+ 0.361267 2 3 cbr 210 ------- 1 0.0 3.0 67 67
- 0.361267 2 3 cbr 210 ------- 1 0.0 3.0 67 67
r 0.361697 2 3 cbr 210 ------- 1 0.0 3.0 64 64
+ 0.3625 0 2 cbr 210 ------- 1 0.0 3.0 70 70
- 0.3625 0 2 cbr 210 ------- 1 0.0 3.0 70 70
r 0.365017 0 2 cbr 210 ------- 1 0.0 3.0 68 68
+ 0.365017 2 3 cbr 210 ------- 1 0.0 3.0 68 68
- 0.365017 2 3 cbr 210 ------- 1 0.0 3.0 68 68
r 0.365447 2 3 cbr 210 ------- 1 0.0 3.0 65 65
+ 0.36625 0 2 cbr 210 ------- 1 0.0 3.0 71 71
- 0.36625 0 2 cbr 210 ------- 1 0.0 3.0 71 71
r 0.368767 0 2 cbr 210 ------- 1 0.0 3.0 69 69
+ 0.368767 2 3 cbr 210 ------- 1 0.0 3.0 69 69
- 0.368767 2 3 cbr 210 ------- 1 0.0 3.0 69 69
r 0.369197 2 3 cbr 210 ------- 1 0.0 3.0 66 66
+ 0.37 0 2 cbr 210 ------- 1 0.0 3.0 72 72
- 0.37 0 2 cbr 210 ------- 1 0.0 3.0 72 72
r 0.372517 0 2 cbr 210 ------- 1 0.0 3.0 70 70
+ 0.372517 2 3 cbr 210 ------- 1 0.0 3.0 70 70
- 0.372517 2 3 cbr 210 ------- 1 0.0 3.0 70 70
r 0.372947 2 3 cbr 210 ------- 1 0.0 3.0 67 67
+ 0.37375 0 2 cbr 210 ------- 1 0.0 3.0 73 73
- 0.37375 0 2 cbr 210 ------- 1 0.0 3.0 73 73
r 0.376267 0 2 cbr 210 ------- 1 0.0 3.0 71 71
+ 0.376267 2 3 cbr 210 ------- 1 0.0 3.0 71 71
- 0.376267 2 3 cbr 210 ------- 1 0.0 3.0 71 71
r 0.376697 2 3 cbr 210 ------- 1 0.0 3.0 68 68
+ 0.3775 0 2 cbr 210 ------- 1 0.0 3.0 74 74
- 0.3775 0 2 cbr 210 ------- 1 0.0 3.0 74 74
r 0.380017 0 2 cbr 210 ------- 1 0.0 3.0 72 72
+ 0.380017 2 3 cbr 210 ------- 1 0.0 3.0 72 72
- 0.380017 2 3 cbr 210 ------- 1 0.0 3.0 72 72
r 0.380447 2 3 cbr 210 ------- 1 0.0 3.0 69 69
+ 0.38125 0 2 cbr 210 ------- 1 0.0 3.0 75 75
- 0.38125 0 2 cbr 210 ------- 1 0.0 3.0 75 75
r 0.383767 0 2 cbr 210 ------- 1 0.0 3.0 73 73
+ 0.383767 2 3 cbr 210 ------- 1 0.0 3.0 73 73
- 0.383767 2 3 cbr 210 ------- 1 0.0 3.0 73 73
r 0.384197 2 3 cbr 210 ------- 1 0.0 3.0 70 70
+ 0.385 0 2 cbr 210 ------- 1 0.0 3.0 76 76
- 0.385 0 2 cbr 210 ------- 1 0.0 3.0 76 76
r 0.387517 0 2 cbr 210 ------- 1 0.0 3.0 74 74
+ 0.387517 2 3 cbr 210 ------- 1 0.0 3.0 74 74
- 0.387517 2 3 cbr 210 ------- 1 0.0 3.0 74 74
r 0.387947 2 3 cbr 210 ------- 1 0.0 3.0 71 71
+ 0.38875 0 2 cbr 210 ------- 1 0.0 3.0 77 77
- 0.38875 0 2 cbr 210 ------- 1 0.0 3.0 77 77
r 0.391267 0 2 cbr 210 ------- 1 0.0 3.0 75 75
+ 0.391267 2 3 cbr 210 ------- 1 0.0 3.0 75 75
- 0.391267 2 3 cbr 210 ------- 1 0.0 3.0 75 75
r 0.391697 2 3 cbr 210 ------- 1 0.0 3.0 72 72
+ 0.3925 0 2 cbr 210 ------- 1 0.0 3.0 78 78
- 0.3925 0 2 cbr 210 ------- 1 0.0 3.0 78 78
r 0.395017 0 2 cbr 210 ------- 1 0.0 3.0 76 76
+ 0.395017 2 3 cbr 210 ------- 1 0.0 3.0 76 76
- 0.395017 2 3 cbr 210 ------- 1 0.0 3.0 76 76
r 0.395447 2 3 cbr 210 ------- 1 0.0 3.0 73 73
+ 0.39625 0 2 cbr 210 ------- 1 0.0 3.0 79 79
- 0.39625 0 2 cbr 210 ------- 1 0.0 3.0 79 79
r 0.398767 0 2 cbr 210 ------- 1 0.0 3.0 77 77
+ 0.398767 2 3 cbr 210 ------- 1 0.0 3.0 77 77
- 0.398767 2 3 cbr 210 ------- 1 0.0 3.0 77 77
r 0.399197 2 3 cbr 210 ------- 1 0.0 3.0 74 74
+ 0.4 0 2 cbr 210 ------- 1 0.0 3.0 80 80
- 0.4 0 2 cbr 210 ------- 1 0.0 3.0 80 80
r 0.402517 0 2 cbr 210 ------- 1 0.0 3.0 78 78
+ 0.402517 2 3 cbr 210 ------- 1 0.0 3.0 78 78
- 0.402517 2 3 cbr 210 ------- 1 0.0 3.0 78 78
r 0.402947 2 3 cbr 210 ------- 1 0.0 3.0 75 75
+ 0.40375 0 2 cbr 210 ------- 1 0.0 3.0 81 81
- 0.40375 0 2 cbr 210 ------- 1 0.0 3.0 81 81
r 0.406267 0 2 cbr 210 ------- 1 0.0 3.0 79 79
+ 0.406267 2 3 cbr 210 ------- 1 0.0 3.0 79 79
- 0.406267 2 3 cbr 210 ------- 1 0.0 3.0 79 79
r 0.406697 2 3 cbr 210 ------- 1 0.0 3.0 76 76
+ 0.4075 0 2 cbr 210 ------- 1 0.0 3.0 82 82
- 0.4075 0 2 cbr 210 ------- 1 0.0 3.0 82 82
r 0.410017 0 2 cbr 210 ------- 1 0.0 3.0 80 80
+ 0.410017 2 3 cbr 210 ------- 1 0.0 3.0 80 80
- 0.410017 2 3 cbr 210 ------- 1 0.0 3.0 80 80
r 0.410447 2 3 cbr 210 ------- 1 0.0 3.0 77 77
+ 0.41125 0 2 cbr 210 ------- 1 0.0 3.0 83 83
- 0.41125 0 2 cbr 210 ------- 1 0.0 3.0 83 83
r 0.413767 0 2 cbr 210 ------- 1 0.0 3.0 81 81
+ 0.413767 2 3 cbr 210 ------- 1 0.0 3.0 81 81
- 0.413767 2 3 cbr 210 ------- 1 0.0 3.0 81 81
r 0.414197 2 3 cbr 210 ------- 1 0.0 3.0 78 78
+ 0.415 0 2 cbr 210 ------- 1 0.0 3.0 84 84
- 0.415 0 2 cbr 210 ------- 1 0.0 3.0 84 84
r 0.417517 0 2 cbr 210 ------- 1 0.0 3.0 82 82
+ 0.417517 2 3 cbr 210 ------- 1 0.0 3.0 82 82
- 0.417517 2 3 cbr 210 ------- 1 0.0 3.0 82 82
r 0.417947 2 3 cbr 210 ------- 1 0.0 3.0 79 79
+ 0.41875 0 2 cbr 210 ------- 1 0.0 3.0 85 85
- 0.41875 0 2 cbr 210 ------- 1 0.0 3.0 85 85
r 0.421267 0 2 cbr 210 ------- 1 0.0 3.0 83 83
+ 0.421267 2 3 cbr 210 ------- 1 0.0 3.0 83 83
- 0.421267 2 3 cbr 210 ------- 1 0.0 3.0 83 83
r 0.421697 2 3 cbr 210 ------- 1 0.0 3.0 80 80
+ 0.4225 0 2 cbr 210 ------- 1 0.0 3.0 86 86
- 0.4225 0 2 cbr 210 ------- 1 0.0 3.0 86 86
r 0.425017 0 2 cbr 210 ------- 1 0.0 3.0 84 84
+ 0.425017 2 3 cbr 210 ------- 1 0.0 3.0 84 84
- 0.425017 2 3 cbr 210 ------- 1 0.0 3.0 84 84
r 0.425447 2 3 cbr 210 ------- 1 0.0 3.0 81 81
+ 0.42625 0 2 cbr 210 ------- 1 0.0 3.0 87 87
- 0.42625 0 2 cbr 210 ------- 1 0.0 3.0 87 87
r 0.428767 0 2 cbr 210 ------- 1 0.0 3.0 85 85
+ 0.428767 2 3 cbr 210 ------- 1 0.0 3.0 85 85
- 0.428767 2 3 cbr 210 ------- 1 0.0 3.0 85 85
r 0.429197 2 3 cbr 210 ------- 1 0.0 3.0 82 82
+ 0.43 0 2 cbr 210 ------- 1 0.0 3.0 88 88
- 0.43 0 2 cbr 210 ------- 1 0.0 3.0 88 88
r 0.432517 0 2 cbr 210 ------- 1 0.0 3.0 86 86
+ 0.432517 2 3 cbr 210 ------- 1 0.0 3.0 86 86
- 0.432517 2 3 cbr 210 ------- 1 0.0 3.0 86 86
r 0.432947 2 3 cbr 210 ------- 1 0.0 3.0 83 83
+ 0.43375 0 2 cbr 210 ------- 1 0.0 3.0 89 89
- 0.43375 0 2 cbr 210 ------- 1 0.0 3.0 89 89
r 0.436267 0 2 cbr 210 ------- 1 0.0 3.0 87 87
+ 0.436267 2 3 cbr 210 ------- 1 0.0 3.0 87 87
- 0.436267 2 3 cbr 210 ------- 1 0.0 3.0 87 87
r 0.436697 2 3 cbr 210 ------- 1 0.0 3.0 84 84
+ 0.4375 0 2 cbr 210 ------- 1 0.0 3.0 90 90
- 0.4375 0 2 cbr 210 ------- 1 0.0 3.0 90 90
r 0.440017 0 2 cbr 210 ------- 1 0.0 3.0 88 88
+ 0.440017 2 3 cbr 210 ------- 1 0.0 3.0 88 88
- 0.440017 2 3 cbr 210 ------- 1 0.0 3.0 88 88
r 0.440447 2 3 cbr 210 ------- 1 0.0 3.0 85 85
+ 0.44125 0 2 cbr 210 ------- 1 0.0 3.0 91 91
- 0.44125 0 2 cbr 210 ------- 1 0.0 3.0 91 91
r 0.443767 0 2 cbr 210 ------- 1 0.0 3.0 89 89
+ 0.443767 2 3 cbr 210 ------- 1 0.0 3.0 89 89
- 0.443767 2 3 cbr 210 ------- 1 0.0 3.0 89 89
r 0.444197 2 3 cbr 210 ------- 1 0.0 3.0 86 86
+ 0.445 0 2 cbr 210 ------- 1 0.0 3.0 92 92
- 0.445 0 2 cbr 210 ------- 1 0.0 3.0 92 92
r 0.447517 0 2 cbr 210 ------- 1 0.0 3.0 90 90
+ 0.447517 2 3 cbr 210 ------- 1 0.0 3.0 90 90
- 0.447517 2 3 cbr 210 ------- 1 0.0 3.0 90 90
r 0.447947 2 3 cbr 210 ------- 1 0.0 3.0 87 87
+ 0.44875 0 2 cbr 210 ------- 1 0.0 3.0 93 93
- 0.44875 0 2 cbr 210 ------- 1 0.0 3.0 93 93
r 0.451267 0 2 cbr 210 ------- 1 0.0 3.0 91 91
+ 0.451267 2 3 cbr 210 ------- 1 0.0 3.0 91 91
- 0.451267 2 3 cbr 210 ------- 1 0.0 3.0 91 91
r 0.451697 2 3 cbr 210 ------- 1 0.0 3.0 88 88
+ 0.4525 0 2 cbr 210 ------- 1 0.0 3.0 94 94
- 0.4525 0 2 cbr 210 ------- 1 0.0 3.0 94 94
r 0.455017 0 2 cbr 210 ------- 1 0.0 3.0 92 92
+ 0.455017 2 3 cbr 210 ------- 1 0.0 3.0 92 92
- 0.455017 2 3 cbr 210 ------- 1 0.0 3.0 92 92
r 0.455447 2 3 cbr 210 ------- 1 0.0 3.0 89 89
+ 0.45625 0 2 cbr 210 ------- 1 0.0 3.0 95 95
- 0.45625 0 2 cbr 210 ------- 1 0.0 3.0 95 95
r 0.458767 0 2 cbr 210 ------- 1 0.0 3.0 93 93
+ 0.458767 2 3 cbr 210 ------- 1 0.0 3.0 93 93
- 0.458767 2 3 cbr 210 ------- 1 0.0 3.0 93 93
r 0.459197 2 3 cbr 210 ------- 1 0.0 3.0 90 90
+ 0.46 0 2 cbr 210 ------- 1 0.0 3.0 96 96
- 0.46 0 2 cbr 210 ------- 1 0.0 3.0 96 96
r 0.462517 0 2 cbr 210 ------- 1 0.0 3.0 94 94
+ 0.462517 2 3 cbr 210 ------- 1 0.0 3.0 94 94
- 0.462517 2 3 cbr 210 ------- 1 0.0 3.0 94 94
r 0.462947 2 3 cbr 210 ------- 1 0.0 3.0 91 91
+ 0.46375 0 2 cbr 210 ------- 1 0.0 3.0 97 97
- 0.46375 0 2 cbr 210 ------- 1 0.0 3.0 97 97
r 0.466267 0 2 cbr 210 ------- 1 0.0 3.0 95 95
+ 0.466267 2 3 cbr 210 ------- 1 0.0 3.0 95 95
- 0.466267 2 3 cbr 210 ------- 1 0.0 3.0 95 95
r 0.466697 2 3 cbr 210 ------- 1 0.0 3.0 92 92
+ 0.4675 0 2 cbr 210 ------- 1 0.0 3.0 98 98
- 0.4675 0 2 cbr 210 ------- 1 0.0 3.0 98 98
r 0.470017 0 2 cbr 210 ------- 1 0.0 3.0 96 96
+ 0.470017 2 3 cbr 210 ------- 1 0.0 3.0 96 96
- 0.470017 2 3 cbr 210 ------- 1 0.0 3.0 96 96
r 0.470447 2 3 cbr 210 ------- 1 0.0 3.0 93 93
+ 0.47125 0 2 cbr 210 ------- 1 0.0 3.0 99 99
- 0.47125 0 2 cbr 210 ------- 1 0.0 3.0 99 99
r 0.473767 0 2 cbr 210 ------- 1 0.0 3.0 97 97
+ 0.473767 2 3 cbr 210 ------- 1 0.0 3.0 97 97
- 0.473767 2 3 cbr 210 ------- 1 0.0 3.0 97 97
r 0.474197 2 3 cbr 210 ------- 1 0.0 3.0 94 94
+ 0.475 0 2 cbr 210 ------- 1 0.0 3.0 100 100
- 0.475 0 2 cbr 210 ------- 1 0.0 3.0 100 100
r 0.477517 0 2 cbr 210 ------- 1 0.0 3.0 98 98
+ 0.477517 2 3 cbr 210 ------- 1 0.0 3.0 98 98
- 0.477517 2 3 cbr 210 ------- 1 0.0 3.0 98 98
r 0.477947 2 3 cbr 210 ------- 1 0.0 3.0 95 95
+ 0.47875 0 2 cbr 210 ------- 1 0.0 3.0 101 101
- 0.47875 0 2 cbr 210 ------- 1 0.0 3.0 101 101
r 0.481267 0 2 cbr 210 ------- 1 0.0 3.0 99 99
+ 0.481267 2 3 cbr 210 ------- 1 0.0 3.0 99 99
- 0.481267 2 3 cbr 210 ------- 1 0.0 3.0 99 99
r 0.481697 2 3 cbr 210 ------- 1 0.0 3.0 96 96
+ 0.4825 0 2 cbr 210 ------- 1 0.0 3.0 102 102
- 0.4825 0 2 cbr 210 ------- 1 0.0 3.0 102 102
r 0.485017 0 2 cbr 210 ------- 1 0.0 3.0 100 100
+ 0.485017 2 3 cbr 210 ------- 1 0.0 3.0 100 100
- 0.485017 2 3 cbr 210 ------- 1 0.0 3.0 100 100
r 0.485447 2 3 cbr 210 ------- 1 0.0 3.0 97 97
+ 0.48625 0 2 cbr 210 ------- 1 0.0 3.0 103 103
- 0.48625 0 2 cbr 210 ------- 1 0.0 3.0 103 103
r 0.488767 0 2 cbr 210 ------- 1 0.0 3.0 101 101
+ 0.488767 2 3 cbr 210 ------- 1 0.0 3.0 101 101
- 0.488767 2 3 cbr 210 ------- 1 0.0 3.0 101 101
r 0.489197 2 3 cbr 210 ------- 1 0.0 3.0 98 98
+ 0.49 0 2 cbr 210 ------- 1 0.0 3.0 104 104
- 0.49 0 2 cbr 210 ------- 1 0.0 3.0 104 104
r 0.492517 0 2 cbr 210 ------- 1 0.0 3.0 102 102
+ 0.492517 2 3 cbr 210 ------- 1 0.0 3.0 102 102
- 0.492517 2 3 cbr 210 ------- 1 0.0 3.0 102 102
r 0.492947 2 3 cbr 210 ------- 1 0.0 3.0 99 99
+ 0.49375 0 2 cbr 210 ------- 1 0.0 3.0 105 105
- 0.49375 0 2 cbr 210 ------- 1 0.0 3.0 105 105
r 0.496267 0 2 cbr 210 ------- 1 0.0 3.0 103 103
+ 0.496267 2 3 cbr 210 ------- 1 0.0 3.0 103 103
- 0.496267 2 3 cbr 210 ------- 1 0.0 3.0 103 103
r 0.496697 2 3 cbr 210 ------- 1 0.0 3.0 100 100
+ 0.4975 0 2 cbr 210 ------- 1 0.0 3.0 106 106
- 0.4975 0 2 cbr 210 ------- 1 0.0 3.0 106 106
+ 0.5 1 2 cbr 500 ------- 2 1.0 3.0 0 107
- 0.5 1 2 cbr 500 ------- 2 1.0 3.0 0 107
r 0.500017 0 2 cbr 210 ------- 1 0.0 3.0 104 104
+ 0.500017 2 3 cbr 210 ------- 1 0.0 3.0 104 104
- 0.500017 2 3 cbr 210 ------- 1 0.0 3.0 104 104
r 0.500447 2 3 cbr 210 ------- 1 0.0 3.0 101 101
+ 0.501 1 2 cbr 500 ------- 2 1.0 3.0 1 108
- 0.501 1 2 cbr 500 ------- 2 1.0 3.0 1 108
+ 0.50125 0 2 cbr 210 ------- 1 0.0 3.0 107 109
- 0.50125 0 2 cbr 210 ------- 1 0.0 3.0 107 109
+ 0.502 1 2 cbr 500 ------- 2 1.0 3.0 2 110
- 0.502 1 2 cbr 500 ------- 2 1.0 3.0 2 110
+ 0.503 1 2 cbr 500 ------- 2 1.0 3.0 3 111
- 0.503 1 2 cbr 500 ------- 2 1.0 3.0 3 111
r 0.503767 0 2 cbr 210 ------- 1 0.0 3.0 105 105
+ 0.503767 2 3 cbr 210 ------- 1 0.0 3.0 105 105
- 0.503767 2 3 cbr 210 ------- 1 0.0 3.0 105 105
+ 0.504 1 2 cbr 500 ------- 2 1.0 3.0 4 112
- 0.504 1 2 cbr 500 ------- 2 1.0 3.0 4 112
r 0.504197 2 3 cbr 210 ------- 1 0.0 3.0 102 102
+ 0.505 0 2 cbr 210 ------- 1 0.0 3.0 108 113