n -t 0 -s 0 -S DLABEL -l "Source0/Udp0" -L ""
n -t 0 -s 1 -S DLABEL -l "Source1/Udp1" -L ""
n -t 0 -s 2 -S DLABEL -l "Router" -L ""
n -t 0 -s 3 -S DLABEL -l "Destination" -L ""
V -t * -v 1.0a5 -a 0
A -t * -n 1 -p 0 -o 0x7fffffff -c 30 -a 1
A -t * -h 1 -m 1073741823 -s 0
c -t * -i 1 -n red
c -t * -i 2 -n blue
n -t * -a 0 -s 0 -S UP -v circle -c black -i black
n -t * -a 1 -s 1 -S UP -v circle -c black -i black
n -t * -a 2 -s 2 -S UP -v circle -c black -i black
n -t * -a 3 -s 3 -S UP -v circle -c black -i black
l -t * -s 0 -d 2 -S UP -r 100000000 -D 0.01 -c black
l -t * -s 1 -d 2 -S UP -r 100000000 -D 0.01 -c black
l -t * -s 2 -d 3 -S UP -r 1000000 -D 0.01 -c black
+ -t 0.1 -s 0 -d 2 -p cbr -e 210 -c 1 -i 0 -a 1 -x {0.0 3.0 0 ------- null}
- -t 0.1 -s 0 -d 2 -p cbr -e 210 -c 1 -i 0 -a 1 -x {0.0 3.0 0 ------- null}
h -t 0.1 -s 0 -d 2 -p cbr -e 210 -c 1 -i 0 -a 1 -x {0.0 3.0 -1 ------- null}
+ -t 0.10375 -s 0 -d 2 -p cbr -e 210 -c 1 -i 1 -a 1 -x {0.0 3.0 1 ------- null}
- -t 0.10375 -s 0 -d 2 -p cbr -e 210 -c 1 -i 1 -a 1 -x {0.0 3.0 1 ------- null}
h -t 0.10375 -s 0 -d 2 -p cbr -e 210 -c 1 -i 1 -a 1 -x {0.0 3.0 -1 ------- null}
+ -t 0.1075 -s 0 -d 2 -p cbr -e 210 -c 1 -i 2 -a 1 -x {0.0 3.0 2 ------- null}
- -t 0.1075 -s 0 -d 2 -p cbr -e 210 -c 1 -i 2 -a 1 -x {0.0 3.0 2 ------- null}
h -t 0.1075 -s 0 -d 2 -p cbr -e 210 -c 1 -i 2 -a 1 -x {0.0 3.0 -1 ------- null}
r -t 0.1100168 -s 0 -d 2 -p cbr -e 210 -c 1 -i 0 -a 1 -x {0.0 3.0 0 ------- null}
+ -t 0.1100168 -s 2 -d 3 -p cbr -e 210 -c 1 -i 0 -a 1 -x {0.0 3.0 0 ------- null}
- -t 0.1100168 -s 2 -d 3 -p cbr -e 210 -c 1 -i 0 -a 1 -x {0.0 3.0 0 ------- null}
h -t 0.1100168 -s 2 -d 3 -p cbr -e 210 -c 1 -i 0 -a 1 -x {0.0 3.0 -1 ------- null}
+ -t 0.11125 -s 0 -d 2 -p cbr -e 210 -c 1 -i 3 -a 1 -x {0.0 3.0 3 ------- null}
- -t 0.11125 -s 0 -d 2 -p cbr -e 210 -c 1 -i 3 -a 1 -x {0.0 3.0 3 ------- null}
h -t 0.11125 -s 0 -d 2 -p cbr -e 210 -c 1 -i 3 -a 1 -x {0.0 3.0 -1 ------- null}
r -t 0.1137668 -s 0 -d 2 -p cbr -e 210 -c 1 -i 1 -a 1 -x {0.0 3.0 1 ------- null}
+ -t 0.1137668 -s 2 -d 3 -p cbr -e 210 -c 1 -i 1 -a 1 -x {0.0 3.0 1 ------- null}
- -t 0.1137668 -s 2 -d 3 -p cbr -e 210 -c 1 -i 1 -a 1 -x {0.0 3.0 1 ------- null}
h -t 0.1137668 -s 2 -d 3 -p cbr -e 210 -c 1 -i 1 -a 1 -x {0.0 3.0 -1 ------- null}
+ -t 0.115 -s 0 -d 2 -p cbr -e 210 -c 1 -i 4 -a 1 -x {0.0 3.0 4 ------- null}
- -t 0.115 -s 0 -d 2 -p cbr -e 210 -c 1 -i 4 -a 1 -x {0.0 3.0 4 ------- null}
h -t 0.115 -s 0 -d 2 -p cbr -e 210 -c 1 -i 4 -a 1 -x {0.0 3.0 -1 ------- null}
r -t 0.1175168 -s 0 -d 2 -p cbr -e 210 -c 1 -i 2 -a 1 -x {0.0 3.0 2 ------- null}
+ -t 0.1175168 -s 2 -d 3 -p cbr -e 210 -c 1 -i 2 -a 1 -x {0.0 3.0 2 ------- null}
- -t 0.1175168 -s 2 -d 3 -p cbr -e 210 -c 1 -i 2 -a 1 -x {0.0 3.0 2 ------- null}
h -t 0.1175168 -s 2 -d 3 -p cbr -e 210 -c 1 -i 2 -a 1 -x {0.0 3.0 -1 ------- null}
+ -t 0.11875 -s 0 -d 2 -p cbr -e 210 -c 1 -i 5 -a 1 -x {0.0 3.0 5 ------- null}
- -t 0.11875 -s 0 -d 2 -p cbr -e 210 -c 1 -i 5 -a 1 -x {0.0 3.0 5 ------- null}
h -t 0.11875 -s 0 -d 2 -p cbr -e 210 -c 1 -i 5 -a 1 -x {0.0 3.0 -1 ------- null}
r -t 0.1212668 -s 0 -d 2 -p cbr -e 210 -c 1 -i 3 -a 1 -x {0.0 3.0 3 ------- null}
+ -t 0.1212668 -s 2 -d 3 -p cbr -e 210 -c 1 -i 3 -a 1 -x {0.0 3.0 3 ------- null}
- -t 0.1212668 -s 2 -d 3 -p cbr -e 210 -c 1 -i 3 -a 1 -x {0.0 3.0 3 ------- null}
h -t 0.1212668 -s 2 -d 3 -p cbr -e 210 -c 1 -i 3 -a 1 -x {0.0 3.0 -1 ------- null}
r -t 0.1216968 -s 2 -d 3 -p cbr -e 210 -c 1 -i 0 -a 1 -x {0.0 3.0 0 ------- null}
+ -t 0.1225 -s 0 -d 2 -p cbr -e 210 -c 1 -i 6 -a 1 -x {0.0 3.0 6 ------- null}
- -t 0.1225 -s 0 -d 2 -p cbr -e 210 -c 1 -i 6 -a 1 -x {0.0 3.0 6 ------- null}
h -t 0.1225 -s 0 -d 2 -p cbr -e 210 -c 1 -i 6 -a 1 -x {0.0 3.0 -1 ------- null}
r -t 0.1250168 -s 0 -d 2 -p cbr -e 210 -c 1 -i 4 -a 1 -x {0.0 3.0 4 ------- null}
+ -t 0.1250168 -s 2 -d 3 -p cbr -e 210 -c 1 -i 4 -a 1 -x {0.0 3.0 4 ------- null}
- -t 0.1250168 -s 2 -d 3 -p cbr -e 210 -c 1 -i 4 -a 1 -x {0.0 3.0 4 ------- null}
h -t 0.1250168 -s 2 -d 3 -p cbr -e 210 -c 1 -i 4 -a 1 -x {0.0 3.0 -1 ------- null}
r -t 0.1254468 -s 2 -d 3 -p cbr -e 210 -c 1 -i 1 -a 1 -x {0.0 3.0 1 ------- null}
+ -t 0.12625 -s 0 -d 2 -p cbr -e 210 -c 1 -i 7 -a 1 -x {0.0 3.0 7 ------- null}
- -t 0.12625 -s 0 -d 2 -p cbr -e 210 -c 1 -i 7 -a 1 -x {0.0 3.0 7 ------- null}
h -t 0.12625 -s 0 -d 2 -p cbr -e 210 -c 1 -i 7 -a 1 -x {0.0 3.0 -1 ------- null}
r -t 0.1287668 -s 0 -d 2 -p cbr -e 210 -c 1 -i 5 -a 1 -x {0.0 3.0 5 ------- null}
+ -t 0.1287668 -s 2 -d 3 -p cbr -e 210 -c 1 -i 5 -a 1 -x {0.0 3.0 5 ------- null}
- -t 0.1287668 -s 2 -d 3 -p cbr -e 210 -c 1 -i 5 -a 1 -x {0.0 3.0 5 ------- null}
h -t 0.1287668 -s 2 -d 3 -p cbr -e 210 -c 1 -i 5 -a 1 -x {0.0 3.0 -1 ------- null}
r -t 0.1291968 -s 2 -d 3 -p cbr -e 210 -c 1 -i 2 -a 1 -x {0.0 3.0 2 ------- null}
+ -t 0.13 -s 0 -d 2 -p cbr -e 210 -c 1 -i 8 -a 1 -x {0.0 3.0 8 ------- null}
- -t 0.13 -s 0 -d 2 -p cbr -e 210 -c 1 -i 8 -a 1 -x {0.0 3.0 8 ------- null}
h -t 0.13 -s 0 -d 2 -p cbr -e 210 -c 1 -i 8 -a 1 -x {0.0 3.0 -1 ------- null}
r -t 0.1325168 -s 0 -d 2 -p cbr -e 210 -c 1 -i 6 -a 1 -x {0.0 3.0 6 ------- null}
+ -t 0.1325168 -s 2 -d 3 -p cbr -e 210 -c 1 -i 6 -a 1 -x {0.0 3.0 6 ------- null}
- -t 0.1325168 -s 2 -d 3 -p cbr -e 210 -c 1 -i 6 -a 1 -x {0.0 3.0 6 ------- null}
h -t 0.1325168 -s 2 -d 3 -p cbr -e 210 -c 1 -i 6 -a 1 -x {0.0 3.0 -1 ------- null}
r -t 0.1329468 -s 2 -d 3 -p cbr -e 210 -c 1 -i 3 -a 1 -x {0.0 3.0 3 ------- null}
+ -t 0.13375 -s 0 -d 2 -p cbr -e 210 -c 1 -i 9 -a 1 -x {0.0 3.0 9 ------- null}
- -t 0.13375 -s 0 -d 2 -p cbr -e 210 -c 1 -i 9 -a 1 -x {0.0 3.0 9 ------- null}
h -t 0.13375 -s 0 -d 2 -p cbr -e 210 -c 1 -i 9 -a 1 -x {0.0 3.0 -1 ------- null}
r -t 0.1362668 -s 0 -d 2 -p cbr -e 210 -c 1 -i 7 -a 1 -x {0.0 3.0 7 ------- null}
+ -t 0.1362668 -s 2 -d 3 -p cbr -e 210 -c 1 -i 7 -a 1 -x {0.0 3.0 7 ------- null}
- -t 0.1362668 -s 2 -d 3 -p cbr -e 210 -c 1 -i 7 -a 1 -x {0.0 3.0 7 ------- null}
h -t 0.1362668 -s 2 -d 3 -p cbr -e 210 -c 1 -i 7 -a 1 -x {0.0 3.0 -1 ------- null}
r -t 0.1366968 -s 2 -d 3 -p cbr -e 210 -c 1 -i 4 -a 1 -x {0.0 3.0 4 ------- null}
+ -t 0.1375 -s 0 -d 2 -p cbr -e 210 -c 1 -i 10 -a 1 -x {0.0 3.0 10 ------- null}
- -t 0.1375 -s 0 -d 2 -p cbr -e 210 -c 1 -i 10 -a 1 -x {0.0 3.0 10 ------- null}
h -t 0.1375 -s 0 -d 2 -p cbr -e 210 -c 1 -i 10 -a 1 -x {0.0 3.0 -1 ------- null}
r -t 0.1400168 -s 0 -d 2 -p cbr -e 210 -c 1 -i 8 -a 1 -x {0.0 3.0 8 ------- null}
+ -t 0.1400168 -s 2 -d 3 -p cbr -e 210 -c 1 -i 8 -a 1 -x {0.0 3.0 8 ------- null}
- -t 0.1400168 -s 2 -d 3 -p cbr -e 210 -c 1 -i 8 -a 1 -x {0.0 3.0 8 ------- null}
h -t 0.1400168 -s 2 -d 3 -p cbr -e 210 -c 1 -i 8 -a 1 -x {0.0 3.0 -1 ------- null}
r -t 0.1404468 -s 2 -d 3 -p cbr -e 210 -c 1 -i 5 -a 1 -x {0.0 3.0 5 ------- null}
+ -t 0.14125 -s 0 -d 2 -p cbr -e 210 -c 1 -i 11 -a 1 -x {0.0 3.0 11 ------- null}
- -t 0.14125 -s 0 -d 2 -p cbr -e 210 -c 1 -i 11 -a 1 -x {0.0 3.0 11 ------- null}
h -t 0.14125 -s 0 -d 2 -p cbr -e 210 -c 1 -i 11 -a 1 -x {0.0 3.0 -1 ------- null}
r -t 0.1437668 -s 0 -d 2 -p cbr -e 210 -c 1 -i 9 -a 1 -x {0.0 3.0 9 ------- null}
+ -t 0.1437668 -s 2 -d 3 -p cbr -e 210 -c 1 -i 9 -a 1 -x {0.0 3.0 9 ------- null}
- -t 0.1437668 -s 2 -d 3 -p cbr -e 210 -c 1 -i 9 -a 1 -x {0.0 3.0 9 ------- null}
h -t 0.1437668 -s 2 -d 3 -p cbr -e 210 -c 1 -i 9 -a 1 -x {0.0 3.0 -1 ------- null}
r -t 0.1441968 -s 2 -d 3 -p cbr -e 210 -c 1 -i 6 -a 1 -x {0.0 3.0 6 ------- null}
+ -t 0.145 -s 0 -d 2 -p cbr -e 210 -c 1 -i 12 -a 1 -x {0.0 3.0 12 ------- null}
- -t 0.145 -s 0 -d 2 -p cbr -e 210 -c 1 -i 12 -a 1 -x {0.0 3.0 12 ------- null}
h -t 0.145 -s 0 -d 2 -p cbr -e 210 -c 1 -i 12 -a 1 -x {0.0 3.0 -1 ------- null}
r -t 0.1475168 -s 0 -d 2 -p cbr -e 210 -c 1 -i 10 -a 1 -x {0.0 3.0 10 ------- null}
+ -t 0.1475168 -s 2 -d 3 -p cbr -e 210 -c 1 -i 10 -a 1 -x {0.0 3.0 10 ------- null}
- -t 0.1475168 -s 2 -d 3 -p cbr -e 210 -c 1 -i 10 -a 1 -x {0.0 3.0 10 ------- null}
h -t 0.1475168 -s 2 -d 3 -p cbr -e 210 -c 1 -i 10 -a 1 -x {0.0 3.0 -1 ------- null}
r -t 0.1479468 -s 2 -d 3 -p cbr -e 210 -c 1 -i 7 -a 1 -x {0.0 3.0 7 ------- null}
+ -t 0.14875 -s 0 -d 2 -p cbr -e 210 -c 1 -i 13 -a 1 -x {0.0 3.0 13 ------- null}
- -t 0.14875 -s 0 -d 2 -p cbr -e 210 -c 1 -i 13 -a 1 -x {0.0 3.0 13 ------- null}
h -t 0.14875 -s 0 -d 2 -p cbr -e 210 -c 1 -i 13 -a 1 -x {0.0 3.0 -1 ------- null}
r -t 0.1512668 -s 0 -d 2 -p cbr -e 210 -c 1 -i 11 -a 1 -x {0.0 3.0 11 ------- null}
+ -t 0.1512668 -s 2 -d 3 -p cbr -e 210 -c 1 -i 11 -a 1 -x {0.0 3.0 11 ------- null}
- -t 0.1512668 -s 2 -d 3 -p cbr -e 210 -c 1 -i 11 -a 1 -x {0.0 3.0 11 ------- null}
h -t 0.1512668 -s 2 -d 3 -p cbr -e 210 -c 1 -i 11 -a 1 -x {0.0 3.0 -1 ------- null}
r -t 0.1516968 -s 2 -d 3 -p cbr -e 210 -c 1 -i 8 -a 1 -x {0.0 3.0 8 ------- null}
+ -t 0.1525 -s 0 -d 2 -p cbr -e 210 -c 1 -i 14 -a 1 -x {0.0 3.0 14 ------- null}
- -t 0.1525 -s 0 -d 2 -p cbr -e 210 -c 1 -i 14 -a 1 -x {0.0 3.0 14 ------- null}
h -t 0.1525 -s 0 -d 2 -p cbr -e 210 -c 1 -i 14 -a 1 -x {0.0 3.0 -1 ------- null}
r -t 0.1550168 -s 0 -d 2 -p cbr -e 210 -c 1 -i 12 -a 1 -x {0.0 3.0 12 ------- null}
+ -t 0.1550168 -s 2 -d 3 -p cbr -e 210 -c 1 -i 12 -a 1 -x {0.0 3.0 12 ------- null}
- -t 0.1550168 -s 2 -d 3 -p cbr -e 210 -c 1 -i 12 -a 1 -x {0.0 3.0 12 ------- null}
h -t 0.1550168 -s 2 -d 3 -p cbr -e 210 -c 1 -i 12 -a 1 -x {0.0 3.0 -1 ------- null}
r -t 0.1554468 -s 2 -d 3 -p cbr -e 210 -c 1 -i 9 -a 1 -x {0.0 3.0 9 ------- null}
+ -t 0.15625 -s 0 -d 2 -p cbr -e 210 -c 1 -i 15 -a 1 -x {0.0 3.0 15 ------- null}
- -t 0.15625 -s 0 -d 2 -p cbr -e 210 -c 1 -i 15 -a 1 -x {0.0 3.0 15 ------- null}
h -t 0.15625 -s 0 -d 2 -p cbr -e 210 -c 1 -i 15 -a 1 -x {0.0 3.0 -1 ------- null}
r -t 0.1587668 -s 0 -d 2 -p cbr -e 210 -c 1 -i 13 -a 1 -x {0.0 3.0 13 ------- null}
+ -t 0.1587668 -s 2 -d 3 -p cbr -e 210 -c 1 -i 13 -a 1 -x {0.0 3.0 13 ------- null}
- -t 0.1587668 -s 2 -d 3 -p cbr -e 210 -c 1 -i 13 -a 1 -x {0.0 3.0 13 ------- null}
h -t 0.1587668 -s 2 -d 3 -p cbr -e 210 -c 1 -i 13 -a 1 -x {0.0 3.0 -1 ------- null}
r -t 0.1591968 -s 2 -d 3 -p cbr -e 210 -c 1 -i 10 -a 1 -x {0.0 3.0 10 ------- null}
+ -t 0.16 -s 0 -d 2 -p cbr -e 210 -c 1 -i 16 -a 1 -x {0.0 3.0 16 ------- null}
- -t 0.16 -s 0 -d 2 -p cbr -e 210 -c 1 -i 16 -a 1 -x {0.0 3.0 16 ------- null}
h -t 0.16 -s 0 -d 2 -p cbr -e 210 -c 1 -i 16 -a 1 -x {0.0 3.0 -1 ------- null}
r -t 0.1625168 -s 0 -d 2 -p cbr -e 210 -c 1 -i 14 -a 1 -x {0.0 3.0 14 ------- null}
+ -t 0.1625168 -s 2 -d 3 -p cbr -e 210 -c 1 -i 14 -a 1 -x {0.0 3.0 14 ------- null}
- -t 0.1625168 -s 2 -d 3 -p cbr -e 210 -c 1 -i 14 -a 1 -x {0.0 3.0 14 ------- null}
h -t 0.1625168 -s 2 -d 3 -p cbr -e 210 -c 1 -i 14 -a 1 -x {0.0 3.0 -1 ------- null}
r -t 0.1629468 -s 2 -d 3 -p cbr -e 210 -c 1 -i 11 -a 1 -x {0.0 3.0 11 ------- null}
+ -t 0.16375 -s 0 -d 2 -p cbr -e 210 -c 1 -i 17 -a 1 -x {0.0 3.0 17 ------- null}
- -t 0.16375 -s 0 -d 2 -p cbr -e 210 -c 1 -i 17 -a 1 -x {0.0 3.0 17 ------- null}
h -t 0.16375 -s 0 -d 2 -p cbr -e 210 -c 1 -i 17 -a 1 -x {0.0 3.0 -1 ------- null}
r -t 0.1662668 -s 0 -d 2 -p cbr -e 210 -c 1 -i 15 -a 1 -x {0.0 3.0 15 ------- null}
+ -t 0.1662668 -s 2 -d 3 -p cbr -e 210 -c 1 -i 15 -a 1 -x {0.0 3.0 15 ------- null}
- -t 0.1662668 -s 2 -d 3 -p cbr -e 210 -c 1 -i 15 -a 1 -x {0.0 3.0 15 ------- null}
h -t 0.1662668 -s 2 -d 3 -p cbr -e 210 -c 1 -i 15 -a 1 -x {0.0 3.0 -1 ------- null}
r -t 0.1666968 -s 2 -d 3 -p cbr -e 210 -c 1 -i 12 -a 1 -x {0.0 3.0 12 ------- null}
+ -t 0.1675 -s 0 -d 2 -p cbr -e 210 -c 1 -i 18 -a 1 -x {0.0 3.0 18 ------- null}
- -t 0.1675 -s 0 -d 2 -p cbr -e 210 -c 1 -i 18 -a 1 -x {0.0 3.0 18 ------- null}
h -t 0.1675 -s 0 -d 2 -p cbr -e 210 -c 1 -i 18 -a 1 -x {0.0 3.0 -1 ------- null}
r -t 0.1700168 -s 0 -d 2 -p cbr -e 210 -c 1 -i 16 -a 1 -x {0.0 3.0 16 ------- null}
+ -t 0.1700168 -s 2 -d 3 -p cbr -e 210 -c 1 -i 16 -a 1 -x {0.0 3.0 16 ------- null}
- -t 0.1700168 -s 2 -d 3 -p cbr -e 210 -c 1 -i 16 -a 1 -x {0.0 3.0 16 ------- null}
h -t 0.1700168 -s 2 -d 3 -p cbr -e 210 -c 1 -i 16 -a 1 -x {0.0 3.0 -1 ------- null}
r -t 0.1704468 -s 2 -d 3 -p cbr -e 210 -c 1 -i 13 -a 1 -x {0.0 3.0 13 ------- null}
+ -t 0.17125 -s 0 -d 2 -p cbr -e 210 -c 1 -i 19 -a 1 -x {0.0 3.0 19 ------- null}
- -t 0.17125 -s 0 -d 2 -p cbr -e 210 -c 1 -i 19 -a 1 -x {0.0 3.0 19 ------- null}
h -t 0.17125 -s 0 -d 2 -p cbr -e 210 -c 1 -i 19 -a 1 -x {0.0 3.0 -1 ------- null}
r -t 0.1737668 -s 0 -d 2 -p cbr -e 210 -c 1 -i 17 -a 1 -x {0.0 3.0 17 ------- null}
+ -t 0.1737668 -s 2 -d 3 -p cbr -e 210 -c 1 -i 17 -a 1 -x {0.0 3.0 17 ------- null}
- -t 0.1737668 -s 2 -d 3 -p cbr -e 210 -c 1 -i 17 -a 1 -x {0.0 3.0 17 ------- null}
h -t 0.1737668 -s 2 -d 3 -p cbr -e 210 -c 1 -i 17 -a 1 -x {0.0 3.0 -1 ------- null}
r -t 0.1741968 -s 2 -d 3 -p cbr -e 210 -c 1 -i 14 -a 1 -x {0.0 3.0 14 ------- null}
+ -t 0.175 -s 0 -d 2 -p cbr -e 210 -c 1 -i 20 -a 1 -x {0.0 3.0 20 ------- null}
- -t 0.175 -s 0 -d 2 -p cbr -e 210 -c 1 -i 20 -a 1 -x {0.0 3.0 20 ------- null}
h -t 0.175 -s 0 -d 2 -p cbr -e 210 -c 1 -i 20 -a 1 -x {0.0 3.0 -1 ------- null}
r -t 0.1775168 -s 0 -d 2 -p cbr -e 210 -c 1 -i 18 -a 1 -x {0.0 3.0 18 ------- null}
+ -t 0.1775168 -s 2 -d 3 -p cbr -e 210 -c 1 -i 18 -a 1 -x {0.0 3.0 18 ------- null}
- -t 0.1775168 -s 2 -d 3 -p cbr -e 210 -c 1 -i 18 -a 1 -x {0.0 3.0 18 ------- null}
h -t 0.1775168 -s 2 -d 3 -p cbr -e 210 -c 1 -i 18 -a 1 -x {0.0 3.0 -1 ------- null}
r -t 0.1779468 -s 2 -d 3 -p cbr -e 210 -c 1 -i 15 -a 1 -x {0.0 3.0 15 ------- null}
+ -t 0.17875 -s 0 -d 2 -p cbr -e 210 -c 1 -i 21 -a 1 -x {0.0 3.0 21 ------- null}
- -t 0.17875 -s 0 -d 2 -p cbr -e 210 -c 1 -i 21 -a 1 -x {0.0 3.0 21 ------- null}
h -t 0.17875 -s 0 -d 2 -p cbr -e 210 -c 1 -i 21 -a 1 -x {0.0 3.0 -1 ------- null}
r -t 0.1812668 -s 0 -d 2 -p cbr -e 210 -c 1 -i 19 -a 1 -x {0.0 3.0 19 ------- null}
+ -t 0.1812668 -s 2 -d 3 -p cbr -e 210 -c 1 -i 19 -a 1 -x {0.0 3.0 19 ------- null}
- -t 0.1812668 -s 2 -d 3 -p cbr -e 210 -c 1 -i 19 -a 1 -x {0.0 3.0 19 ------- null}
h -t 0.1812668 -s 2 -d 3 -p cbr -e 210 -c 1 -i 19 -a 1 -x {0.0 3.0 -1 ------- null}
r -t 0.1816968 -s 2 -d 3 -p cbr -e 210 -c 1 -i 16 -a 1 -x {0.0 3.0 16 ------- null}
+ -t 0.1825 -s 0 -d 2 -p cbr -e 210 -c 1 -i 22 -a 1 -x {0.0 3.0 22 ------- null}
- -t 0.1825 -s 0 -d 2 -p cbr -e 210 -c 1 -i 22 -a 1 -x {0.0 3.0 22 ------- null}
h -t 0.1825 -s 0 -d 2 -p cbr -e 210 -c 1 -i 22 -a 1 -x {0.0 3.0 -1 ------- null}
r -t 0.1850168 -s 0 -d 2 -p cbr -e 210 -c 1 -i 20 -a 1 -x {0.0 3.0 20 ------- null}
+ -t 0.1850168 -s 2 -d 3 -p cbr -e 210 -c 1 -i 20 -a 1 -x {0.0 3.0 20 ------- null}
- -t 0.1850168 -s 2 -d 3 -p cbr -e 210 -c 1 -i 20 -a 1 -x {0.0 3.0 20 ------- null}
h -t 0.1850168 -s 2 -d 3 -p cbr -e 210 -c 1 -i 20 -a 1 -x {0.0 3.0 -1 ------- null}
r -t 0.1854468 -s 2 -d 3 -p cbr -e 210 -c 1 -i 17 -a 1 -x {0.0 3.0 17 ------- null}
+ -t 0.18625 -s 0 -d 2 -p cbr -e 210 -c 1 -i 23 -a 1 -x {0.0 3.0 23 ------- null}
- -t 0.18625 -s 0 -d 2 -p cbr -e 210 -c 1 -i 23 -a 1 -x {0.0 3.0 23 ------- null}
h -t 0.18625 -s 0 -d 2 -p cbr -e 210 -c 1 -i 23 -a 1 -x {0.0 3.0 -1 ------- null}
r -t 0.1887668 -s 0 -d 2 -p cbr -e 210 -c 1 -i 21 -a 1 -x {0.0 3.0 21 ------- null}
+ -t 0.1887668 -s 2 -d 3 -p cbr -e 210 -c 1 -i 21 -a 1 -x {0.0 3.0 21 ------- null}
- -t 0.1887668 -s 2 -d 3 -p cbr -e 210 -c 1 -i 21 -a 1 -x {0.0 3.0 21 ------- null}
h -t 0.1887668 -s 2 -d 3 -p cbr -e 210 -c 1 -i 21 -a 1 -x {0.0 3.0 -1 ------- null}
r -t 0.1891968 -s 2 -d 3 -p cbr -e 210 -c 1 -i 18 -a 1 -x {0.0 3.0 18 ------- null}
+ -t 0.19 -s 0 -d 2 -p cbr -e 210 -c 1 -i 24 -a 1 -x {0.0 3.0 24 ------- null}
- -t 0.19 -s 0 -d 2 -p cbr -e 210 -c 1 -i 24 -a 1 -x {0.0 3.0 24 ------- null}
h -t 0.19 -s 0 -d 2 -p cbr -e 210 -c 1 -i 24 -a 1 -x {0.0 3.0 -1 ------- null}
r -t 0.1925168 -s 0 -d 2 -p cbr -e 210 -c 1 -i 22 -a 1 -x {0.0 3.0 22 ------- null}
+ -t 0.1925168 -s 2 -d 3 -p cbr -e 210 -c 1 -i 22 -a 1 -x {0.0 3.0 22 ------- null}
- -t 0.1925168 -s 2 -d 3 -p cbr -e 210 -c 1 -i 22 -a 1 -x {0.0 3.0 22 ------- null}
h -t 0.1925168 -s 2 -d 3 -p cbr -e 210 -c 1 -i 22 -a 1 -x {0.0 3.0 -1 ------- null}
r -t 0.1929468 -s 2 -d 3 -p cbr -e 210 -c 1 -i 19 -a 1 -x {0.0 3.0 19 ------- null}
+ -t 0.19375 -s 0 -d 2 -p cbr -e 210 -c 1 -i 25 -a 1 -x {0.0 3.0 25 ------- null}
- -t 0.19375 -s 0 -d 2 -p cbr -e 210 -c 1 -i 25 -a 1 -x {0.0 3.0 25 ------- null}
h -t 0.19375 -s 0 -d 2 -p cbr -e 210 -c 1 -i 25 -a 1 -x {0.0 3.0 -1 ------- null}
r -t 0.1962668 -s 0 -d 2 -p cbr -e 210 -c 1 -i 23 -a 1 -x {0.0 3.0 23 ------- null}
+ -t 0.1962668 -s 2 -d 3 -p cbr -e 210 -c 1 -i 23 -a 1 -x {0.0 3.0 23 ------- null}
- -t 0.1962668 -s 2 -d 3 -p cbr -e 210 -c 1 -i 23 -a 1 -x {0.0 3.0 23 ------- null}
h -t 0.1962668 -s 2 -d 3 -p cbr -e 210 -c 1 -i 23 -a 1 -x {0.0 3.0 -1 ------- null}
r -t 0.1966968 -s 2 -d 3 -p cbr -e 210 -c 1 -i 20 -a 1 -x {0.0 3.0 20 ------- null}
+ -t 0.1975 -s 0 -d 2 -p cbr -e 210 -c 1 -i 26 -a 1 -x {0.0 3.0 26 ------- null}
- -t 0.1975 -s 0 -d 2 -p cbr -e 210 -c 1 -i 26 -a 1 -x {0.0 3.0 26 ------- null}
h -t 0.1975 -s 0 -d 2 -p cbr -e 210 -c 1 -i 26 -a 1 -x {0.0 3.0 -1 ------- null}
r -t 0.2000168 -s 0 -d 2 -p cbr -e 210 -c 1 -i 24 -a 1 -x {0.0 3.0 24 ------- null}
+ -t 0.2000168 -s 2 -d 3 -p cbr -e 210 -c 1 -i 24 -a 1 -x {0.0 3.0 24 ------- null}
- -t 0.2000168 -s 2 -d 3 -p cbr -e 210 -c 1 -i 24 -a 1 -x {0.0 3.0 24 ------- null}
h -t 0.2000168 -s 2 -d 3 -p cbr -e 210 -c 1 -i 24 -a 1 -x {0.0 3.0 -1 ------- null}
r -t 0.2004468 -s 2 -d 3 -p cbr -e 210 -c 1 -i 21 -a 1 -x {0.0 3.0 21 ------- null}
+ -t 0.20125 -s 0 -d 2 -p cbr -e 210 -c 1 -i 27 -a 1 -x {0.0 3.0 27 ------- null}
- -t 0.20125 -s 0 -d 2 -p cbr -e 210 -c 1 -i 27 -a 1 -x {0.0 3.0 27 ------- null}
h -t 0.20125 -s 0 -d 2 -p cbr -e 210 -c 1 -i 27 -a 1 -x {0.0 3.0 -1 ------- null}
r -t 0.2037668 -s 0 -d 2 -p cbr -e 210 -c 1 -i 25 -a 1 -x {0.0 3.0 25 ------- null}
+ -t 0.2037668 -s 2 -d 3 -p cbr -e 210 -c 1 -i 25 -a 1 -x {0.0 3.0 25 ------- null}
- -t 0.2037668 -s 2 -d 3 -p cbr -e 210 -c 1 -i 25 -a 1 -x {0.0 3.0 25 ------- null}
h -t 0.2037668 -s 2 -d 3 -p cbr -e 210 -c 1 -i 25 -a 1 -x {0.0 3.0 -1 ------- null}
r -t 0.2041968 -s 2 -d 3 -p cbr -e 210 -c 1 -i 22 -a 1 -x {0.0 3.0 22 ------- null}
+ -t 0.205 -s 0 -d 2 -p cbr -e 210 -c 1 -i 28 -a 1 -x {0.0 3.0 28 ------- null}
- -t 0.205 -s 0 -d 2 -p cbr -e 210 -c 1 -i 28 -a 1 -x {0.0 3.0 28 ------- null}
h -t 0.205 -s 0 -d 2 -p cbr -e 210 -c 1 -i 28 -a 1 -x {0.0 3.0 -1 ------- null}
r -t 0.2075168 -s 0 -d 2 -p cbr -e 210 -c 1 -i 26 -a 1 -x {0.0 3.0 26 ------- null}
+ -t 0.2075168 -s 2 -d 3 -p cbr -e 210 -c 1 -i 26 -a 1 -x {0.0 3.0 26 ------- null}
- -t 0.2075168 -s 2 -d 3 -p cbr -e 210 -c 1 -i 26 -a 1 -x {0.0 3.0 26 ------- null}
h -t 0.2075168 -s 2 -d 3 -p cbr -e 210 -c 1 -i 26 -a 1 -x {0.0 3.0 -1 ------- null}
r -t 0.2079468 -s 2 -d 3 -p cbr -e 210 -c 1 -i 23 -a 1 -x {0.0 3.0 23 ------- null}
+ -t 0.20875 -s 0 -d 2 -p cbr -e 210 -c 1 -i 29 -a 1 -x {0.0 3.0 29 ------- null}
- -t 0.20875 -s 0 -d 2 -p cbr -e 210 -c 1 -i 29 -a 1 -x {0.0 3.0 29 ------- null}
h -t 0.20875 -s 0 -d 2 -p cbr -e 210 -c 1 -i 29 -a 1 -x {0.0 3.0 -1 ------- null}
r -t 0.2112668 -s 0 -d 2 -p cbr -e 210 -c 1 -i 27 -a 1 -x {0.0 3.0 27 ------- null}
+ -t 0.2112668 -s 2 -d 3 -p cbr -e 210 -c 1 -i 27 -a 1 -x {0.0 3.0 27 ------- null}
- -t 0.2112668 -s 2 -d 3 -p cbr -e 210 -c 1 -i 27 -a 1 -x {0.0 3.0 27 ------- null}
h -t 0.2112668 -s 2 -d 3 -p cbr -e 210 -c 1 -i 27 -a 1 -x {0.0 3.0 -1 ------- null}
r -t 0.2116968 -s 2 -d 3 -p cbr -e 210 -c 1 -i 24 -a 1 -x {0.0 3.0 24 ------- null}
+ -t 0.2125 -s 0 -d 2 -p cbr -e 210 -c 1 -i 30 -a 1 -x {0.0 3.0 30 ------- null}
- -t 0.2125 -s 0 -d 2 -p cbr -e 210 -c 1 -i 30 -a 1 -x {0.0 3.0 30 ------- null}
h -t 0.2125 -s 0 -d 2 -p cbr -e 210 -c 1 -i 30 -a 1 -x {0.0 3.0 -1 ------- null}
r -t 0.2150168 -s 0 -d 2 -p cbr -e 210 -c 1 -i 28 -a 1 -x {0.0 3.0 28 ------- null}
+ -t 0.2150168 -s 2 -d 3 -p cbr -e 210 -c 1 -i 28 -a 1 -x {0.0 3.0 28 ------- null}
- -t 0.2150168 -s 2 -d 3 -p cbr -e 210 -c 1 -i 28 -a 1 -x {0.0 3.0 28 ------- null}
h -t 0.2150168 -s 2 -d 3 -p cbr -e 210 -c 1 -i 28 -a 1 -x {0.0 3.0 -1 ------- null}
r -t 0.2154468 -s 2 -d 3 -p cbr -e 210 -c 1 -i 25 -a 1 -x {0.0 3.0 25 ------- null}
+ -t 0.21625 -s 0 -d 2 -p cbr -e 210 -c 1 -i 31 -a 1 -x {0.0 3.0 31 ------- null}
- -t 0.21625 -s 0 -d 2 -p cbr -e 210 -c 1 -i 31 -a 1 -x {0.0 3.0 31 ------- null}
h -t 0.21625 -s 0 -d 2 -p cbr -e 210 -c 1 -i 31 -a 1 -x {0.0 3.0 -1 ------- null}
r -t 0.2187668 -s 0 -d 2 -p cbr -e 210 -c 1 -i 29 -a 1 -x {0.0 3.0 29 ------- null}
+ -t 0.2187668 -s 2 -d 3 -p cbr -e 210 -c 1 -i 29 -a 1 -x {0.0 3.0 29 ------- null}
- -t 0.2187668 -s 2 -d 3 -p cbr -e 210 -c 1 -i 29 -a 1 -x {0.0 3.0 29 ------- null}
h -t 0.2187668 -s 2 -d 3 -p cbr -e 210 -c 1 -i 29 -a 1 -x {0.0 3.0 -1 ------- null}
r -t 0.2191968 -s 2 -d 3 -p cbr -e 210 -c 1 -i 26 -a 1 -x {0.0 3.0 26 ------- null}
+ -t 0.22 -s 0 -d 2 -p cbr -e 210 -c 1 -i 32 -a 1 -x {0.0 3.0 32 ------- null}
- -t 0.22 -s 0 -d 2 -p cbr -e 210 -c 1 -i 32 -a 1 -x {0.0 3.0 32 ------- null}
h -t 0.22 -s 0 -d 2 -p cbr -e 210 -c 1 -i 32 -a 1 -x {0.0 3.0 -1 ------- null}
r -t 0.2225168 -s 0 -d 2 -p cbr -e 210 -c 1 -i 30 -a 1 -x {0.0 3.0 30 ------- null}
+ -t 0.2225168 -s 2 -d 3 -p cbr -e 210 -c 1 -i 30 -a 1 -x {0.0 3.0 30 ------- null}
- -t 0.2225168 -s 2 -d 3 -p cbr -e 210 -c 1 -i 30 -a 1 -x {0.0 3.0 30 ------- null}
h -t 0.2225168 -s 2 -d 3 -p cbr -e 210 -c 1 -i 30 -a 1 -x {0.0 3.0 -1 ------- null}
r -t 0.2229468 -s 2 -d 3 -p cbr -e 210 -c 1 -i 27 -a 1 -x {0.0 3.0 27 ------- null}
+ -t 0.22375 -s 0 -d 2 -p cbr -e 210 -c 1 -i 33 -a 1 -x {0.0 3.0 33 ------- null}
- -t 0.22375 -s 0 -d 2 -p cbr -e 210 -c 1 -i 33 -a 1 -x {0.0 3.0 33 ------- null}
h -t 0.22375 -s 0 -d 2 -p cbr -e 210 -c 1 -i 33 -a 1 -x {0.0 3.0 -1 ------- null}
r -t 0.2262668 -s 0 -d 2 -p cbr -e 210 -c 1 -i 31 -a 1 -x {0.0 3.0 31 ------- null}
+ -t 0.2262668 -s 2 -d 3 -p cbr -e 210 -c 1 -i 31 -a 1 -x {0.0 3.0 31 ------- null}
- -t 0.2262668 -s 2 -d 3 -p cbr -e 210 -c 1 -i 31 -a 1 -x {0.0 3.0 31 ------- null}
h -t 0.2262668 -s 2 -d 3 -p cbr -e 210 -c 1 -i 31 -a 1 -x {0.0 3.0 -1 ------- null}
r -t 0.2266968 -s 2 -d 3 -p cbr -e 210 -c 1 -i 28 -a 1 -x {0.0 3.0 28 ------- null}
+ -t 0.2275 -s 0 -d 2 -p cbr -e 210 -c 1 -i 34 -a 1 -x {0.0 3.0 34 ------- null}
- -t 0.2275 -s 0 -d 2 -p cbr -e 210 -c 1 -i 34 -a 1 -x {0.0 3.0 34 ------- null}
h -t 0.2275 -s 0 -d 2 -p cbr -e 210 -c 1 -i 34 -a 1 -x {0.0 3.0 -1 ------- null}
r -t 0.2300168 -s 0 -d 2 -p cbr -e 210 -c 1 -i 32 -a 1 -x {0.0 3.0 32 ------- null}
+ -t 0.2300168 -s 2 -d 3 -p cbr -e 210 -c 1 -i 32 -a 1 -x {0.0 3.0 32 ------- null}
- -t 0.2300168 -s 2 -d 3 -p cbr -e 210 -c 1 -i 32 -a 1 -x {0.0 3.0 32 ------- null}
h -t 0.2300168 -s 2 -d 3 -p cbr -e 210 -c 1 -i 32 -a 1 -x {0.0 3.0 -1 ------- null}
r -t 0.2304468 -s 2 -d 3 -p cbr -e 210 -c 1 -i 29 -a 1 -x {0.0 3.0 29 ------- null}
+ -t 0.23125 -s 0 -d 2 -p cbr -e 210 -c 1 -i 35 -a 1 -x {0.0 3.0 35 ------- null}
- -t 0.23125 -s 0 -d 2 -p cbr -e 210 -c 1 -i 35 -a 1 -x {0.0 3.0 35 ------- null}
h -t 0.23125 -s 0 -d 2 -p cbr -e 210 -c 1 -i 35 -a 1 -x {0.0 3.0 -1 ------- null}
r -t 0.2337668 -s 0 -d 2 -p cbr -e 210 -c 1 -i 33 -a 1 -x {0.0 3.0 33 ------- null}
+ -t 0.2337668 -s 2 -d 3 -p cbr -e 210 -c 1 -i 33 -a 1 -x {0.0 3.0 33 ------- null}
- -t 0.2337668 -s 2 -d 3 -p cbr -e 210 -c 1 -i 33 -a 1 -x {0.0 3.0 33 ------- null}
h -t 0.2337668 -s 2 -d 3 -p cbr -e 210 -c 1 -i 33 -a 1 -x {0.0 3.0 -1 ------- null}
r -t 0.2341968 -s 2 -d 3 -p cbr -e 210 -c 1 -i 30 -a 1 -x {0.0 3.0 30 ------- null}
+ -t 0.235 -s 0 -d 2 -p cbr -e 210 -c 1 -i 36 -a 1 -x {0.0 3.0 36 ------- null}
- -t 0.235 -s 0 -d 2 -p cbr -e 210 -c 1 -i 36 -a 1 -x {0.0 3.0 36 ------- null}
h -t 0.235 -s 0 -d 2 -p cbr -e 210 -c 1 -i 36 -a 1 -x {0.0 3.0 -1 ------- null}
r -t 0.2375168 -s 0 -d 2 -p cbr -e 210 -c 1 -i 34 -a 1 -x {0.0 3.0 34 ------- null}
+ -t 0.2375168 -s 2 -d 3 -p cbr -e 210 -c 1 -i 34 -a 1 -x {0.0 3.0 34 ------- null}
- -t 0.2375168 -s 2 -d 3 -p cbr -e 210 -c 1 -i 34 -a 1 -x {0.0 3.0 34 ------- null}
h -t 0.2375168 -s 2 -d 3 -p cbr -e 210 -c 1 -i 34 -a 1 -x {0.0 3.0 -1 ------- null}
r -t 0.2379468 -s 2 -d 3 -p cbr -e 210 -c 1 -i 31 -a 1 -x {0.0 3.0 31 ------- null}
+ -t 0.23875 -s 0 -d 2 -p cbr -e 210 -c 1 -i 37 -a 1 -x {0.0 3.0 37 ------- null}
- -t 0.23875 -s 0 -d 2 -p cbr -e 210 -c 1 -i 37 -a 1 -x {0.0 3.0 37 ------- null}
h -t 0.23875 -s 0 -d 2 -p cbr -e 210 -c 1 -i 37 -a 1 -x {0.0 3.0 -1 ------- null}
r -t 0.2412668 -s 0 -d 2 -p cbr -e 210 -c 1 -i 35 -a 1 -x {0.0 3.0 35 ------- null}
+ -t 0.2412668 -s 2 -d 3 -p cbr -e 210 -c 1 -i 35 -a 1 -x {0.0 3.0 35 ------- null}
- -t 0.2412668 -s 2 -d 3 -p cbr -e 210 -c 1 -i 35 -a 1 -x {0.0 3.0 35 ------- null}
h -t 0.2412668 -s 2 -d 3 -p cbr -e 210 -c 1 -i 35 -a 1 -x {0.0 3.0 -1 ------- null}
r -t 0.2416968 -s 2 -d 3 -p cbr -e 210 -c 1 -i 32 -a 1 -x {0.0 3.0 32 ------- null}
+ -t 0.2425 -s 0 -d 2 -p cbr -e 210 -c 1 -i 38 -a 1 -x {0.0 3.0 38 ------- null}
- -t 0.2425 -s 0 -d 2 -p cbr -e 210 -c 1 -i 38 -a 1 -x {0.0 3.0 38 ------- null}
h -t 0.2425 -s 0 -d 2 -p cbr -e 210 -c 1 -i 38 -a 1 -x {0.0 3.0 -1 ------- null}
r -t 0.2450168 -s 0 -d 2 -p cbr -e 210 -c 1 -i 36 -a 1 -x {0.0 3.0 36 ------- null}
+ -t 0.2450168 -s 2 -d 3 -p cbr -e 210 -c 1 -i 36 -a 1 -x {0.0 3.0 36 ------- null}
- -t 0.2450168 -s 2 -d 3 -p cbr -e 210 -c 1 -i 36 -a 1 -x {0.0 3.0 36 ------- null}
h -t 0.2450168 -s 2 -d 3 -p cbr -e 210 -c 1 -i 36 -a 1 -x {0.0 3.0 -1 ------- null}
r -t 0.2454468 -s 2 -d 3 -p cbr -e 210 -c 1 -i 33 -a 1 -x {0.0 3.0 33 ------- null}
+ -t 0.24625 -s 0 -d 2 -p cbr -e 210 -c 1 -i 39 -a 1 -x {0.0 3.0 39 ------- null}
- -t 0.24625 -s 0 -d 2 -p cbr -e 210 -c 1 -i 39 -a 1 -x {0.0 3.0 39 ------- null}
h -t 0.24625 -s 0 -d 2 -p cbr -e 210 -c 1 -i 39 -a 1 -x {0.0 3.0 -1 ------- null}
r -t 0.2487668 -s 0 -d 2 -p cbr -e 210 -c 1 -i 37 -a 1 -x {0.0 3.0 37 ------- null}
+ -t 0.2487668 -s 2 -d 3 -p cbr -e 210 -c 1 -i 37 -a 1 -x {0.0 3.0 37 ------- null}
- -t 0.2487668 -s 2 -d 3 -p cbr -e 210 -c 1 -i 37 -a 1 -x {0.0 3.0 37 ------- null}
h -t 0.2487668 -s 2 -d 3 -p cbr -e 210 -c 1 -i 37 -a 1 -x {0.0 3.0 -1 ------- null}
r -t 0.2491968 -s 2 -d 3 -p cbr -e 210 -c 1 -i 34 -a 1 -x {0.0 3.0 34 ------- null}
+ -t 0.25 -s 0 -d 2 -p cbr -e 210 -c 1 -i 40 -a 1 -x {0.0 3.0 40 ------- null}
- -t 0.25 -s 0 -d 2 -p cbr -e 210 -c 1 -i 40 -a 1 -x {0.0 3.0 40 ------- null}
h -t 0.25 -s 0 -d 2 -p cbr -e 210 -c 1 -i 40 -a 1 -x {0.0 3.0 -1 ------- null}
r -t 0.2525168 -s 0 -d 2 -p cbr -e 210 -c 1 -i 38 -a 1 -x {0.0 3.0 38 ------- null}
+ -t 0.2525168 -s 2 -d 3 -p cbr -e 210 -c 1 -i 38 -a 1 -x {0.0 3.0 38 ------- null}
- -t 0.2525168 -s 2 -d 3 -p cbr -e 210 -c 1 -i 38 -a 1 -x {0.0 3.0 38 ------- null}
h -t 0.2525168 -s 2 -d 3 -p cbr -e 210 -c 1 -i 38 -a 1 -x {0.0 3.0 -1 ------- null}
r -t 0.2529468 -s 2 -d 3 -p cbr -e 210 -c 1 -i 35 -a 1 -x {0.0 3.0 35 ------- null}
+ -t 0.25375 -s 0 -d 2 -p cbr -e 210 -c 1 -i 41 -a 1 -x {0.0 3.0 41 ------- null}
- -t 0.25375 -s 0 -d 2 -p cbr -e 210 -c 1 -i 41 -a 1 -x {0.0 3.0 41 ------- null}
h -t 0.25375 -s 0 -d 2 -p cbr -e 210 -c 1 -i 41 -a 1 -x {0.0 3.0 -1 ------- null}
r -t 0.2562668 -s 0 -d 2 -p cbr -e 210 -c 1 -i 39 -a 1 -x {0.0 3.0 39 ------- null}
+ -t 0.2562668 -s 2 -d 3 -p cbr -e 210 -c 1 -i 39 -a 1 -x {0.0 3.0 39 ------- null}
- -t 0.2562668 -s 2 -d 3 -p cbr -e 210 -c 1 -i 39 -a 1 -x {0.0 3.0 39 ------- null}
h -t 0.2562668 -s 2 -d 3 -p cbr -e 210 -c 1 -i 39 -a 1 -x {0.0 3.0 -1 ------- null}
r -t 0.2566968 -s 2 -d 3 -p cbr -e 210 -c 1 -i 36 -a 1 -x {0.0 3.0 36 ------- null}
+ -t 0.2575 -s 0 -d 2 -p cbr -e 210 -c 1 -i 42 -a 1 -x {0.0 3.0 42 ------- null}
- -t 0.2575 -s 0 -d 2 -p cbr -e 210 -c 1 -i 42 -a 1 -x {0.0 3.0 42 ------- null}
h -t 0.2575 -s 0 -d 2 -p cbr -e 210 -c 1 -i 42 -a 1 -x {0.0 3.0 -1 ------- null}
r -t 0.2600168 -s 0 -d 2 -p cbr -e 210 -c 1 -i 40 -a 1 -x {0.0 3.0 40 ------- null}
+ -t 0.2600168 -s 2 -d 3 -p cbr -e 210 -c 1 -i 40 -a 1 -x {0.0 3.0 40 ------- null}
- -t 0.2600168 -s 2 -d 3 -p cbr -e 210 -c 1 -i 40 -a 1 -x {0.0 3.0 40 ------- null}
h -t 0.2600168 -s 2 -d 3 -p cbr -e 210 -c 1 -i 40 -a 1 -x {0.0 3.0 -1 ------- null}
r -t 0.2604468 -s 2 -d 3 -p cbr -e 210 -c 1 -i 37 -a 1 -x {0.0 3.0 37 ------- null}
+ -t 0.26125 -s 0 -d 2 -p cbr -e 210 -c 1 -i 43 -a 1 -x {0.0 3.0 43 ------- null}
- -t 0.26125 -s 0 -d 2 -p cbr -e 210 -c 1 -i 43 -a 1 -x {0.0 3.0 43 ------- null}
h -t 0.26125 -s 0 -d 2 -p cbr -e 210 -c 1 -i 43 -a 1 -x {0.0 3.0 -1 ------- null}
r -t 0.2637668 -s 0 -d 2 -p cbr -e 210 -c 1 -i 41 -a 1 -x {0.0 3.0 41 ------- null}
+ -t 0.2637668 -s 2 -d 3 -p cbr -e 210 -c 1 -i 41 -a 1 -x {0.0 3.0 41 ------- null}
- -t 0.2637668 -s 2 -d 3 -p cbr -e 210 -c 1 -i 41 -a 1 -x {0.0 3.0 41 ------- null}
h -t 0.2637668 -s 2 -d 3 -p cbr -e 210 -c 1 -i 41 -a 1 -x {0.0 3.0 -1 ------- null}
r -t 0.2641968 -s 2 -d 3 -p cbr -e 210 -c 1 -i 38 -a 1 -x {0.0 3.0 38 ------- null}
+ -t 0.265 -s 0 -d 2 -p cbr -e 210 -c 1 -i 44 -a 1 -x {0.0 3.0 44 ------- null}
- -t 0.265 -s 0 -d 2 -p cbr -e 210 -c 1 -i 44 -a 1 -x {0.0 3.0 44 ------- null}
h -t 0.265 -s 0 -d 2 -p cbr -e 210 -c 1 -i 44 -a 1 -x {0.0 3.0 -1 ------- null}
r -t 0.2675168 -s 0 -d 2 -p cbr -e 210 -c 1 -i 42 -a 1 -x {0.0 3.0 42 ------- null}
+ -t 0.2675168 -s 2 -d 3 -p cbr -e 210 -c 1 -i 42 -a 1 -x {0.0 3.0 42 ------- null}
- -t 0.2675168 -s 2 -d 3 -p cbr -e 210 -c 1 -i 42 -a 1 -x {0.0 3.0 42 ------- null}
h -t 0.2675168 -s 2 -d 3 -p cbr -e 210 -c 1 -i 42 -a 1 -x {0.0 3.0 -1 ------- null}
r -t 0.2679468 -s 2 -d 3 -p cbr -e 210 -c 1 -i 39 -a 1 -x {0.0 3.0 39 ------- null}
+ -t 0.26875 -s 0 -d 2 -p cbr -e 210 -c 1 -i 45 -a 1 -x {0.0 3.0 45 ------- null}
- -t 0.26875 -s 0 -d 2 -p cbr -e 210 -c 1 -i 45 -a 1 -x {0.0 3.0 45 ------- null}
h -t 0.26875 -s 0 -d 2 -p cbr -e 210 -c 1 -i 45 -a 1 -x {0.0 3.0 -1 ------- null}
r -t 0.2712668 -s 0 -d 2 -p cbr -e 210 -c 1 -i 43 -a 1 -x {0.0 3.0 43 ------- null}
+ -t 0.2712668 -s 2 -d 3 -p cbr -e 210 -c 1 -i 43 -a 1 -x {0.0 3.0 43 ------- null}
- -t 0.2712668 -s 2 -d 3 -p cbr -e 210 -c 1 -i 43 -a 1 -x {0.0 3.0 43 ------- null}
h -t 0.2712668 -s 2 -d 3 -p cbr -e 210 -c 1 -i 43 -a 1 -x {0.0 3.0 -1 ------- null}
r -t 0.2716968 -s 2 -d 3 -p cbr -e 210 -c 1 -i 40 -a 1 -x {0.0 3.0 40 ------- null}